TITLE = "B00080"
VARIABLES = "x", "y", "Vx", "Vy", "isValid"
ZONE T="Frame 0", I=25, J=25, F=POINT
-35.0547683239 35.2574698925 0 -0 0
-31.8127043247 35.2574698925 0 -0 0
-28.5706403255 35.2574698925 0 -0 0
-25.3285763264 35.2574698925 0 -0 0
-22.0865123272 35.2574698925 0 -0 0
-18.844448328 35.2574698925 0 -0 0
-15.6023843288 35.2574698925 0 -0 0
-12.3603203297 35.2574698925 0 -0 0
-9.1182563305 35.2574698925 0 -0 0
-5.8761923313 35.2574698925 0 -0 0
-2.6341283321 35.2574698925 0 -0 0
0.607935667 35.2574698925 0 -0 0
3.8499996662 35.2574698925 0 -0 0
7.0920636654 35.2574698925 0 -0 0
10.3341276646 35.2574698925 0 -0 0
13.5761916637 35.2574698925 0 -0 0
16.8182556629 35.2574698925 0 -0 0
20.0603196621 35.2574698925 0 -0 0
23.3023836613 35.2574698925 0 -0 0
26.5444476604 35.2574698925 0 -0 0
29.7865116596 35.2574698925 0 -0 0
33.0285756588 35.2574698925 0 -0 0
36.270639658 35.2574698925 0 -0 0
39.5127036572 35.2574698925 0 -0 0
42.7547676563 35.2574698925 0 -0 0
-35.0547683239 32.0154058933 0 -0 0
-31.8127043247 32.0154058933 0 -0 0
-28.5706403255 32.0154058933 0 -0 0
-25.3285763264 32.0154058933 0 -0 0
-22.0865123272 32.0154058933 0 -0 0
-18.844448328 32.0154058933 0 -0 0
-15.6023843288 32.0154058933 0 -0 0
-12.3603203297 32.0154058933 0 -0 0
-9.1182563305 32.0154058933 0 -0 0
-5.8761923313 32.0154058933 0 -0 0
-2.6341283321 32.0154058933 0 -0 0
0.607935667 32.0154058933 0 -0 0
3.8499996662 32.0154058933 0 -0 0
7.0920636654 32.0154058933 0 -0 0
10.3341276646 32.0154058933 0 -0 0
13.5761916637 32.0154058933 0 -0 0
16.8182556629 32.0154058933 0 -0 0
20.0603196621 32.0154058933 0 -0 0
23.3023836613 32.0154058933 0 -0 0
26.5444476604 32.0154058933 0 -0 0
29.7865116596 32.0154058933 0 -0 0
33.0285756588 32.0154058933 0 -0 0
36.270639658 32.0154058933 0 -0 0
39.5127036572 32.0154058933 0 -0 0
42.7547676563 32.0154058933 0 -0 0
-35.0547683239 28.7733418941 0 -0 0
-31.8127043247 28.7733418941 0 -0 0
-28.5706403255 28.7733418941 0 -0 0
-25.3285763264 28.7733418941 0 -0 0
-22.0865123272 28.7733418941 0 -0 0
-18.844448328 28.7733418941 0 -0 0
-15.6023843288 28.7733418941 0 -0 0
-12.3603203297 28.7733418941 0 -0 0
-9.1182563305 28.7733418941 0 -0 0
-5.8761923313 28.7733418941 0 -0 0
-2.6341283321 28.7733418941 0 -0 0
0.607935667 28.7733418941 0 -0 0
3.8499996662 28.7733418941 0 -0 0
7.0920636654 28.7733418941 0 -0 0
10.3341276646 28.7733418941 0 -0 0
13.5761916637 28.7733418941 0 -0 0
16.8182556629 28.7733418941 0 -0 0
20.0603196621 28.7733418941 0 -0 0
23.3023836613 28.7733418941 0 -0 0
26.5444476604 28.7733418941 0 -0 0
29.7865116596 28.7733418941 0 -0 0
33.0285756588 28.7733418941 0 -0 0
36.270639658 28.7733418941 0 -0 0
39.5127036572 28.7733418941 0 -0 0
42.7547676563 28.7733418941 0 -0 0
-35.0547683239 25.531277895 0 -0 0
-31.8127043247 25.531277895 0 -0 0
-28.5706403255 25.531277895 0 -0 0
-25.3285763264 25.531277895 0 -0 0
-22.0865123272 25.531277895 0 -0 0
-18.844448328 25.531277895 0 -0 0
-15.6023843288 25.531277895 0 -0 0
-12.3603203297 25.531277895 0 -0 0
-9.1182563305 25.531277895 5.1700743583 1.2450323709 1
-5.8761923313 25.531277895 4.2155276901 1.4223109828 1
-2.6341283321 25.531277895 0.6873526733 1.2514839385 1
0.607935667 25.531277895 -2.1399540483 1.0719427338 1
3.8499996662 25.531277895 -1.5053557045 0.2536173243 1
7.0920636654 25.531277895 1.0787319466 -0.8023748809 1
10.3341276646 25.531277895 3.1018347058 -1.5724694293 1
13.5761916637 25.531277895 3.3359516975 -1.3043815389 1
16.8182556629 25.531277895 0 -0 0
20.0603196621 25.531277895 0 -0 0
23.3023836613 25.531277895 0 -0 0
26.5444476604 25.531277895 0 -0 0
29.7865116596 25.531277895 0 -0 0
33.0285756588 25.531277895 0 -0 0
36.270639658 25.531277895 0 -0 0
39.5127036572 25.531277895 0 -0 0
42.7547676563 25.531277895 0 -0 0
-35.0547683239 22.2892138958 0 -0 0
-31.8127043247 22.2892138958 0 -0 0
-28.5706403255 22.2892138958 0 -0 0
-25.3285763264 22.2892138958 0 -0 0
-22.0865123272 22.2892138958 0 -0 0
-18.844448328 22.2892138958 0 -0 0
-15.6023843288 22.2892138958 1.1047224762 1.2317093872 1
-12.3603203297 22.2892138958 1.9742817361 2.1719501036 1
-9.1182563305 22.2892138958 3.3732051448 2.7336865259 1
-5.8761923313 22.2892138958 3.7530743619 2.9870220451 1
-2.6341283321 22.2892138958 2.9271619934 2.5308999611 1
0.607935667 22.2892138958 2.3454820839 1.1782076034 1
3.8499996662 22.2892138958 2.6448591863 -0.4980492341 1
7.0920636654 22.2892138958 3.2058901241 -1.3451901873 1
10.3341276646 22.2892138958 3.2150069225 -1.1491096507 1
13.5761916637 22.2892138958 2.7903381554 -0.6952076614 1
16.8182556629 22.2892138958 2.2884069825 -0.111892875 1
20.0603196621 22.2892138958 1.5486377004 0.4292396969 1
23.3023836613 22.2892138958 0 -0 0
26.5444476604 22.2892138958 0 -0 0
29.7865116596 22.2892138958 0 -0 0
33.0285756588 22.2892138958 0 -0 0
36.270639658 22.2892138958 0 -0 0
39.5127036572 22.2892138958 0 -0 0
42.7547676563 22.2892138958 0 -0 0
-35.0547683239 19.0471498966 0 -0 0
-31.8127043247 19.0471498966 0 -0 0
-28.5706403255 19.0471498966 0 -0 0
-25.3285763264 19.0471498966 0 -0 0
-22.0865123272 19.0471498966 0 -0 0
-18.844448328 19.0471498966 1.1253065307 0.176155883 1
-15.6023843288 19.0471498966 1.0121525813 2.146002525 1
-12.3603203297 19.0471498966 1.3329085972 3.4167751922 1
-9.1182563305 19.0471498966 1.8716781998 3.9382389109 1
-5.8761923313 19.0471498966 2.3386949092 3.5542155932 1
-2.6341283321 19.0471498966 3.2867404915 2.3938591787 1
0.607935667 19.0471498966 3.9339145157 0.2140027005 1
3.8499996662 19.0471498966 3.7911258386 -1.4315952074 1
7.0920636654 19.0471498966 2.9373974822 -1.1448712332 1
10.3341276646 19.0471498966 2.5089928024 -0.338296017 1
13.5761916637 19.0471498966 2.5133878516 -0.452821985 1
16.8182556629 19.0471498966 1.9347116485 -0.7040795859 1
20.0603196621 19.0471498966 1.020142084 -0.4633118212 1
23.3023836613 19.0471498966 0.2293085479 -0.1984338438 1
26.5444476604 19.0471498966 0 -0 0
29.7865116596 19.0471498966 0 -0 0
33.0285756588 19.0471498966 0 -0 0
36.270639658 19.0471498966 0 -0 0
39.5127036572 19.0471498966 0 -0 0
42.7547676563 19.0471498966 0 -0 0
-35.0547683239 15.8050858974 0 -0 0
-31.8127043247 15.8050858974 0 -0 0
-28.5706403255 15.8050858974 0 -0 0
-25.3285763264 15.8050858974 0 -0 0
-22.0865123272 15.8050858974 1.5222249821 -1.2809750935 1
-18.844448328 15.8050858974 1.9212019145 0.7285232732 1
-15.6023843288 15.8050858974 2.6478221307 2.7219413334 1
-12.3603203297 15.8050858974 2.4003090856 3.4465966703 1
-9.1182563305 15.8050858974 1.4946994612 3.2122112533 1
-5.8761923313 15.8050858974 1.0390239476 2.2987389414 1
-2.6341283321 15.8050858974 2.0178294398 0.9139319412 1
0.607935667 15.8050858974 2.9203019 -1.0999488688 1
3.8499996662 15.8050858974 2.4823124136 -1.9706332353 1
7.0920636654 15.8050858974 1.5299812356 -0.8980581621 1
10.3341276646 15.8050858974 1.5642300707 0.092043348 1
13.5761916637 15.8050858974 2.4668551618 -0.4197346405 1
16.8182556629 15.8050858974 2.1833368924 -1.4358530246 1
20.0603196621 15.8050858974 0.9802117812 -1.6275426636 1
23.3023836613 15.8050858974 -0.1308914386 -1.222425691 1
26.5444476604 15.8050858974 -0.140211613 -1.3400629318 1
29.7865116596 15.8050858974 0 -0 0
33.0285756588 15.8050858974 0 -0 0
36.270639658 15.8050858974 0 -0 0
39.5127036572 15.8050858974 0 -0 0
42.7547676563 15.8050858974 0 -0 0
-35.0547683239 12.5630218983 0 -0 0
-31.8127043247 12.5630218983 0 -0 0
-28.5706403255 12.5630218983 0 -0 0
-25.3285763264 12.5630218983 0 -0 0
-22.0865123272 12.5630218983 1.2446885359 -0.7847796623 1
-18.844448328 12.5630218983 2.854268972 1.7602161753 1
-15.6023843288 12.5630218983 5.0728856761 3.3801452525 1
-12.3603203297 12.5630218983 4.9691167995 2.9962182539 1
-9.1182563305 12.5630218983 2.9540486076 1.8681762912 1
-5.8761923313 12.5630218983 0.8811688055 0.9603765398 1
-2.6341283321 12.5630218983 0.5870629466 0.0319944442 1
0.607935667 12.5630218983 0.8076981715 -1.1600514544 1
3.8499996662 12.5630218983 0.229361161 -1.6793744133 1
7.0920636654 12.5630218983 -0.3052773828 -1.094321222 1
10.3341276646 12.5630218983 0.4752981888 -0.7572319488 1
13.5761916637 12.5630218983 1.8581963952 -0.9644947849 1
16.8182556629 12.5630218983 1.787987325 -1.6626482555 1
20.0603196621 12.5630218983 0.5116663459 -1.9784358367 1
23.3023836613 12.5630218983 -0.3927494803 -1.7615560373 1
26.5444476604 12.5630218983 -0.2469596067 -1.761073989 1
29.7865116596 12.5630218983 -0.1393638484 -1.7998498214 1
33.0285756588 12.5630218983 0 -0 0
36.270639658 12.5630218983 0 -0 0
39.5127036572 12.5630218983 0 -0 0
42.7547676563 12.5630218983 0 -0 0
-35.0547683239 9.3209578991 0 -0 0
-31.8127043247 9.3209578991 0 -0 0
-28.5706403255 9.3209578991 0 -0 0
-25.3285763264 9.3209578991 1.1764472134 -2.472758707 1
-22.0865123272 9.3209578991 1.9576215524 -0.5796961589 1
-18.844448328 9.3209578991 3.6335713539 2.4085626354 1
-15.6023843288 9.3209578991 6.246759977 3.728167573 1
-12.3603203297 9.3209578991 6.4595822968 2.7462339748 1
-9.1182563305 9.3209578991 4.2803096777 1.1722815636 1
-5.8761923313 9.3209578991 1.0353931103 0.6631917535 1
-2.6341283321 9.3209578991 -0.8319307267 0.2053347181 1
0.607935667 9.3209578991 -1.3334797181 -0.8014285232 1
3.8499996662 9.3209578991 -1.4247630435 -1.775027123 1
7.0920636654 9.3209578991 -1.2755394055 -2.2051110462 1
10.3341276646 9.3209578991 -0.2999374478 -2.0343237071 1
13.5761916637 9.3209578991 0.603625943 -1.2764583621 1
16.8182556629 9.3209578991 0.6674258684 -1.0831754573 1
20.0603196621 9.3209578991 0.035094906 -1.2802329232 1
23.3023836613 9.3209578991 -0.4267106791 -1.7691311264 1
26.5444476604 9.3209578991 -0.4099565918 -2.1696274245 1
29.7865116596 9.3209578991 -0.5091878276 -2.2235040677 1
33.0285756588 9.3209578991 0 -0 0
36.270639658 9.3209578991 0 -0 0
39.5127036572 9.3209578991 0 -0 0
42.7547676563 9.3209578991 0 -0 0
-35.0547683239 6.0788938999 0 -0 0
-31.8127043247 6.0788938999 0 -0 0
-28.5706403255 6.0788938999 0 -0 0
-25.3285763264 6.0788938999 1.4130249466 -1.3202471656 1
-22.0865123272 6.0788938999 2.1487165192 -0.1268999143 1
-18.844448328 6.0788938999 3.2319500246 2.5587677317 1
-15.6023843288 6.0788938999 5.109045494 4.2460865076 1
-12.3603203297 6.0788938999 5.2825980063 3.6288906687 1
-9.1182563305 6.0788938999 3.7541631602 2.2198747401 1
-5.8761923313 6.0788938999 0.6760144215 1.3347465104 1
-2.6341283321 6.0788938999 -1.9063157835 0.2910762234 1
0.607935667 6.0788938999 -2.6368375269 -1.1204818952 1
3.8499996662 6.0788938999 -2.0878366627 -2.4681242187 1
7.0920636654 6.0788938999 -1.13971167 -3.1987939131 1
10.3341276646 6.0788938999 -0.4085437734 -2.7945958216 1
13.5761916637 6.0788938999 -0.4153888453 -1.4304035983 1
16.8182556629 6.0788938999 -0.360478055 -0.281637424 1
20.0603196621 6.0788938999 -0.2933436095 -0.0107034639 1
23.3023836613 6.0788938999 -0.2820196244 -0.8379148145 1
26.5444476604 6.0788938999 -0.5851455852 -2.0855414602 1
29.7865116596 6.0788938999 -0.8553409464 -2.6631353568 1
33.0285756588 6.0788938999 -1.0801039652 -2.7032044014 1
36.270639658 6.0788938999 0 -0 0
39.5127036572 6.0788938999 0 -0 0
42.7547676563 6.0788938999 0 -0 0
-35.0547683239 2.8368299007 0 -0 0
-31.8127043247 2.8368299007 0 -0 0
-28.5706403255 2.8368299007 0.9297386894 1.5014011867 1
-25.3285763264 2.8368299007 0.6289202729 0.8882376909 1
-22.0865123272 2.8368299007 0.910947408 1.9457930243 1
-18.844448328 2.8368299007 1.3900825841 3.6150330989 1
-15.6023843288 2.8368299007 2.6048022193 4.4679048495 1
-12.3603203297 2.8368299007 2.8962583596 4.0435624802 1
-9.1182563305 2.8368299007 1.8537839843 3.0995019117 1
-5.8761923313 2.8368299007 -0.5469952984 1.9108054912 1
-2.6341283321 2.8368299007 -2.5808208788 -0.0302745898 1
0.607935667 2.8368299007 -2.5010612723 -1.9798744333 1
3.8499996662 2.8368299007 -1.0473247512 -3.2372533116 1
7.0920636654 2.8368299007 0.0475955212 -3.5640063233 1
10.3341276646 2.8368299007 0.137841718 -2.9145478155 1
13.5761916637 2.8368299007 -0.3408532286 -1.5854480496 1
16.8182556629 2.8368299007 -0.18405018 -0.2557902219 1
20.0603196621 2.8368299007 0.1072171435 0.2944064409 1
23.3023836613 2.8368299007 -0.12618707 -0.4243896229 1
26.5444476604 2.8368299007 -0.7408793672 -1.7784174645 1
29.7865116596 2.8368299007 -0.9544139652 -2.4393676855 1
33.0285756588 2.8368299007 -0.9019093407 -2.2619666367 1
36.270639658 2.8368299007 0 -0 0
39.5127036572 2.8368299007 0 -0 0
42.7547676563 2.8368299007 0 -0 0
-35.0547683239 -0.4052340984 0 -0 0
-31.8127043247 -0.4052340984 0 -0 0
-28.5706403255 -0.4052340984 0.0136257124 1.8816802884 1
-25.3285763264 -0.4052340984 -0.9111792985 3.3135108586 1
-22.0865123272 -0.4052340984 -1.0296860531 5.0806087161 1
-18.844448328 -0.4052340984 -0.3159099803 5.5062907963 1
-15.6023843288 -0.4052340984 1.0309163861 4.4307570814 1
-12.3603203297 -0.4052340984 1.4281705956 3.3855967924 1
-9.1182563305 -0.4052340984 0.070037365 2.7619273443 1
-5.8761923313 -0.4052340984 -1.8711135706 1.9426904323 1
-2.6341283321 -0.4052340984 -3.0808519386 -0.2476268202 1
0.607935667 -0.4052340984 -1.7783552647 -2.5458075298 1
3.8499996662 -0.4052340984 0.2577806152 -3.7866833846 1
7.0920636654 -0.4052340984 1.1678713418 -3.6417412662 1
10.3341276646 -0.4052340984 0.7629433087 -2.8289521476 1
13.5761916637 -0.4052340984 0.2887895319 -1.8456098449 1
16.8182556629 -0.4052340984 0.4027100143 -0.965428763 1
20.0603196621 -0.4052340984 0.3100118135 -0.3992252409 1
23.3023836613 -0.4052340984 -0.1074447408 -0.7066389865 1
26.5444476604 -0.4052340984 -0.6804117353 -1.4715039214 1
29.7865116596 -0.4052340984 -0.6301537762 -1.395834706 1
33.0285756588 -0.4052340984 -0.5216090277 -0.9703635314 1
36.270639658 -0.4052340984 0 -0 0
39.5127036572 -0.4052340984 0 -0 0
42.7547676563 -0.4052340984 0 -0 0
-35.0547683239 -3.6472980976 0 -0 0
-31.8127043247 -3.6472980976 0 -0 0
-28.5706403255 -3.6472980976 -1.362721621 1.0123465783 1
-25.3285763264 -3.6472980976 -2.4994336608 3.1398378719 1
-22.0865123272 -3.6472980976 -3.0860930258 5.7013300149 1
-18.844448328 -3.6472980976 -2.7620025275 5.9461012872 1
-15.6023843288 -3.6472980976 -1.2056931171 4.2267493174 1
-12.3603203297 -3.6472980976 -0.155510478 2.6301984542 1
-9.1182563305 -3.6472980976 -1.3034521654 2.2404356961 1
-5.8761923313 -3.6472980976 -3.1474193017 1.6782493821 1
-2.6341283321 -3.6472980976 -3.6523973585 -0.22265351 1
0.607935667 -3.6472980976 -1.4089386318 -2.5162822555 1
3.8499996662 -3.6472980976 1.0058571926 -3.647534301 1
7.0920636654 -3.6472980976 1.8348420346 -3.1410229893 1
10.3341276646 -3.6472980976 1.5226529831 -2.3887746477 1
13.5761916637 -3.6472980976 1.3073985307 -1.9703713017 1
16.8182556629 -3.6472980976 1.0962836857 -1.794426513 1
20.0603196621 -3.6472980976 0.3694079899 -1.4036459127 1
23.3023836613 -3.6472980976 -0.2346108913 -1.1841036755 1
26.5444476604 -3.6472980976 -0.6173826269 -1.0595505578 1
29.7865116596 -3.6472980976 -0.41167003 -0.3946561228 1
33.0285756588 -3.6472980976 -0.3602103468 0.1052897332 1
36.270639658 -3.6472980976 0 -0 0
39.5127036572 -3.6472980976 0 -0 0
42.7547676563 -3.6472980976 0 -0 0
-35.0547683239 -6.8893620968 0 -0 0
-31.8127043247 -6.8893620968 0 -0 0
-28.5706403255 -6.8893620968 -3.1146191782 1.4421992148 1
-25.3285763264 -6.8893620968 -3.7601319246 2.756065467 1
-22.0865123272 -6.8893620968 -4.7052338867 4.6115803265 1
-18.844448328 -6.8893620968 -5.5421824909 5.6091728729 1
-15.6023843288 -6.8893620968 -4.3330261136 4.5156549643 1
-12.3603203297 -6.8893620968 -2.6514079788 3.1900035126 1
-9.1182563305 -6.8893620968 -2.9299060307 2.5169586027 1
-5.8761923313 -6.8893620968 -4.184167522 2.0436659042 1
-2.6341283321 -6.8893620968 -3.7544958989 0.6565957828 1
0.607935667 -6.8893620968 -0.9385401862 -1.2514806927 1
3.8499996662 -6.8893620968 1.3653818698 -2.0458344426 1
7.0920636654 -6.8893620968 2.0440673344 -1.5787811983 1
10.3341276646 -6.8893620968 2.3057794444 -1.530472946 1
13.5761916637 -6.8893620968 2.5807973274 -2.0713251848 1
16.8182556629 -6.8893620968 2.2223138173 -2.5108435481 1
20.0603196621 -6.8893620968 1.0887644557 -2.1378111749 1
23.3023836613 -6.8893620968 0.1370859226 -1.4342405101 1
26.5444476604 -6.8893620968 -0.4648029932 -0.7401278368 1
29.7865116596 -6.8893620968 -0.6949693547 0.0256410757 1
33.0285756588 -6.8893620968 -0.8190750717 0.3188272184 1
36.270639658 -6.8893620968 0 -0 0
39.5127036572 -6.8893620968 0 -0 0
42.7547676563 -6.8893620968 0 -0 0
-35.0547683239 -10.131426096 0 -0 0
-31.8127043247 -10.131426096 0 -0 0
-28.5706403255 -10.131426096 -4.9160643035 4.8834429289 1
-25.3285763264 -10.131426096 -5.0509418316 5.0983078778 1
-22.0865123272 -10.131426096 -5.8702386787 5.2053060105 1
-18.844448328 -10.131426096 -6.8685573926 6.0043359919 1
-15.6023843288 -10.131426096 -5.9689213637 5.9208982944 1
-12.3603203297 -10.131426096 -4.3994047638 4.9729408788 1
-9.1182563305 -10.131426096 -3.9619004962 4.1659574766 1
-5.8761923313 -10.131426096 -3.8236807862 3.4412332971 1
-2.6341283321 -10.131426096 -2.1064200578 2.3416945394 1
0.607935667 -10.131426096 0.6067607672 0.4546577847 1
3.8499996662 -10.131426096 1.9960897073 -0.5399462656 1
7.0920636654 -10.131426096 2.1708599465 -0.5296464634 1
10.3341276646 -10.131426096 2.6569645941 -0.8424517005 1
13.5761916637 -10.131426096 3.1901710897 -1.6288888664 1
16.8182556629 -10.131426096 2.8582005422 -2.2310462452 1
20.0603196621 -10.131426096 1.7682636506 -1.8089110627 1
23.3023836613 -10.131426096 0.6963542058 -0.5141119148 1
26.5444476604 -10.131426096 -0.1828542305 0.6361528856 1
29.7865116596 -10.131426096 -1.0066301609 0.9742964604 1
33.0285756588 -10.131426096 -1.3713752423 0.5902850693 1
36.270639658 -10.131426096 0 -0 0
39.5127036572 -10.131426096 0 -0 0
42.7547676563 -10.131426096 0 -0 0
-35.0547683239 -13.3734900951 0 -0 0
-31.8127043247 -13.3734900951 0 -0 0
-28.5706403255 -13.3734900951 0 -0 0
-25.3285763264 -13.3734900951 -4.3765255069 8.068966245 1
-22.0865123272 -13.3734900951 -4.6540033011 7.3027058909 1
-18.844448328 -13.3734900951 -5.4357616689 7.5267163225 1
-15.6023843288 -13.3734900951 -5.1795486545 7.1020626524 1
-12.3603203297 -13.3734900951 -4.2580545323 6.0219512141 1
-9.1182563305 -13.3734900951 -3.261011518 4.7300117469 1
-5.8761923313 -13.3734900951 -2.0750118812 3.9030688546 1
-2.6341283321 -13.3734900951 0.0810800782 3.0759221523 1
0.607935667 -13.3734900951 1.9426389514 1.3572484923 1
3.8499996662 -13.3734900951 2.2305780861 -0.0906369741 1
7.0920636654 -13.3734900951 1.8742483193 -0.7403253815 1
10.3341276646 -13.3734900951 2.2176394729 -1.0344891753 1
13.5761916637 -13.3734900951 2.7600978854 -1.1360142548 1
16.8182556629 -13.3734900951 2.6256657199 -1.2911275486 1
20.0603196621 -13.3734900951 1.967659421 -0.6334324751 1
23.3023836613 -13.3734900951 1.2467720779 0.9520177636 1
26.5444476604 -13.3734900951 0.4424255618 2.3020605914 1
29.7865116596 -13.3734900951 -0.7301715676 2.4901517008 1
33.0285756588 -13.3734900951 -1.3568970333 1.6426490603 1
36.270639658 -13.3734900951 0 -0 0
39.5127036572 -13.3734900951 0 -0 0
42.7547676563 -13.3734900951 0 -0 0
-35.0547683239 -16.6155540943 0 -0 0
-31.8127043247 -16.6155540943 0 -0 0
-28.5706403255 -16.6155540943 0 -0 0
-25.3285763264 -16.6155540943 -1.2733723769 9.1088718595 1
-22.0865123272 -16.6155540943 -1.3601063614 7.8816071908 1
-18.844448328 -16.6155540943 -2.3473006729 6.9249581094 1
-15.6023843288 -16.6155540943 -3.1407998551 5.7001512382 1
-12.3603203297 -16.6155540943 -2.8908303711 4.1327672457 1
-9.1182563305 -16.6155540943 -1.6310940905 2.8542303236 1
-5.8761923313 -16.6155540943 -0.0965372923 2.2227024151 1
-2.6341283321 -16.6155540943 1.4880111721 1.816683772 1
0.607935667 -16.6155540943 2.2154581021 0.7929988664 1
3.8499996662 -16.6155540943 1.7105229209 -0.4450493513 1
7.0920636654 -16.6155540943 1.0399149747 -1.2065669336 1
10.3341276646 -16.6155540943 0.9611452809 -1.3522865494 1
13.5761916637 -16.6155540943 1.2831424241 -1.1946976434 1
16.8182556629 -16.6155540943 1.5624694543 -1.0830208637 1
20.0603196621 -16.6155540943 1.5459686953 -0.0219286814 1
23.3023836613 -16.6155540943 1.5562491733 1.7323529338 1
26.5444476604 -16.6155540943 1.0843241908 3.048623389 1
29.7865116596 -16.6155540943 0.0861000788 3.1493396447 1
33.0285756588 -16.6155540943 0 -0 0
36.270639658 -16.6155540943 0 -0 0
39.5127036572 -16.6155540943 0 -0 0
42.7547676563 -16.6155540943 0 -0 0
-35.0547683239 -19.8576180935 0 -0 0
-31.8127043247 -19.8576180935 0 -0 0
-28.5706403255 -19.8576180935 0 -0 0
-25.3285763264 -19.8576180935 0 -0 0
-22.0865123272 -19.8576180935 1.0679752326 5.8495641931 1
-18.844448328 -19.8576180935 -1.3628396798 4.6932163437 1
-15.6023843288 -19.8576180935 -3.4635720801 2.9957952349 1
-12.3603203297 -19.8576180935 -3.4657406185 1.3514470032 1
-9.1182563305 -19.8576180935 -1.3778094483 0.2011456679 1
-5.8761923313 -19.8576180935 0.4516560786 -0.1712640092 1
-2.6341283321 -19.8576180935 1.5035606668 -0.3154461994 1
0.607935667 -19.8576180935 1.593907825 -0.4790792793 1
3.8499996662 -19.8576180935 0.8107943472 -0.9745605075 1
7.0920636654 -19.8576180935 0.1127138047 -1.5276451201 1
10.3341276646 -19.8576180935 -0.2470707208 -1.8388228212 1
13.5761916637 -19.8576180935 -0.051065292 -2.0018225049 1
16.8182556629 -19.8576180935 0.6067049459 -1.8218776054 1
20.0603196621 -19.8576180935 1.2372409414 -0.5867258675 1
23.3023836613 -19.8576180935 1.615085042 1.28108968 1
26.5444476604 -19.8576180935 1.3773059621 2.625884325 1
29.7865116596 -19.8576180935 0.7876385881 2.8215727161 1
33.0285756588 -19.8576180935 0 -0 0
36.270639658 -19.8576180935 0 -0 0
39.5127036572 -19.8576180935 0 -0 0
42.7547676563 -19.8576180935 0 -0 0
-35.0547683239 -23.0996820927 0 -0 0
-31.8127043247 -23.0996820927 0 -0 0
-28.5706403255 -23.0996820927 0 -0 0
-25.3285763264 -23.0996820927 0 -0 0
-22.0865123272 -23.0996820927 1.4374841084 4.1521608988 1
-18.844448328 -23.0996820927 -1.7821856848 2.9928135702 1
-15.6023843288 -23.0996820927 -4.2478277997 1.2856716306 1
-12.3603203297 -23.0996820927 -4.2903024061 -0.1138024048 1
-9.1182563305 -23.0996820927 -2.1679354996 -0.8543295959 1
-5.8761923313 -23.0996820927 -0.2088002051 -0.8974913439 1
-2.6341283321 -23.0996820927 0.7379270663 -0.8733338964 1
0.607935667 -23.0996820927 0.8097100025 -0.7750660025 1
3.8499996662 -23.0996820927 0.2470793073 -0.7008331192 1
7.0920636654 -23.0996820927 -0.4662759356 -1.1743127189 1
10.3341276646 -23.0996820927 -1.0566239973 -2.0901576811 1
13.5761916637 -23.0996820927 -1.1495756207 -2.7785482757 1
16.8182556629 -23.0996820927 -0.4482271265 -2.6802931388 1
20.0603196621 -23.0996820927 0.7828923063 -1.4216453545 1
23.3023836613 -23.0996820927 1.4400570963 0.3497917687 1
26.5444476604 -23.0996820927 1.3485011184 1.6971554009 1
29.7865116596 -23.0996820927 0 -0 0
33.0285756588 -23.0996820927 0 -0 0
36.270639658 -23.0996820927 0 -0 0
39.5127036572 -23.0996820927 0 -0 0
42.7547676563 -23.0996820927 0 -0 0
-35.0547683239 -26.3417460918 0 -0 0
-31.8127043247 -26.3417460918 0 -0 0
-28.5706403255 -26.3417460918 0 -0 0
-25.3285763264 -26.3417460918 0 -0 0
-22.0865123272 -26.3417460918 0 -0 0
-18.844448328 -26.3417460918 -1.9073399665 2.853321482 1
-15.6023843288 -26.3417460918 -3.5013614722 1.6715616969 1
-12.3603203297 -26.3417460918 -3.6644686469 0.9708460327 1
-9.1182563305 -26.3417460918 -2.728122664 0.7339526959 1
-5.8761923313 -26.3417460918 -1.5201559332 0.5429737121 1
-2.6341283321 -26.3417460918 -0.4241513162 0.0199017863 1
0.607935667 -26.3417460918 0.3262205392 -0.4997089646 1
3.8499996662 -26.3417460918 0.2778477471 -0.7162109605 1
7.0920636654 -26.3417460918 -0.4145987041 -1.4386550346 1
10.3341276646 -26.3417460918 -1.2636657373 -2.8487295673 1
13.5761916637 -26.3417460918 -1.9370284398 -3.5179633813 1
16.8182556629 -26.3417460918 -1.6754452585 -2.9096307107 1
20.0603196621 -26.3417460918 -0.4107805504 -1.4422159726 1
23.3023836613 -26.3417460918 0.6994079589 0.2296392107 1
26.5444476604 -26.3417460918 0 -0 0
29.7865116596 -26.3417460918 0 -0 0
33.0285756588 -26.3417460918 0 -0 0
36.270639658 -26.3417460918 0 -0 0
39.5127036572 -26.3417460918 0 -0 0
42.7547676563 -26.3417460918 0 -0 0
-35.0547683239 -29.583810091 0 -0 0
-31.8127043247 -29.583810091 0 -0 0
-28.5706403255 -29.583810091 0 -0 0
-25.3285763264 -29.583810091 0 -0 0
-22.0865123272 -29.583810091 0 -0 0
-18.844448328 -29.583810091 0 -0 0
-15.6023843288 -29.583810091 -1.3679491209 3.4380266866 1
-12.3603203297 -29.583810091 -2.0182945795 3.3705136451 1
-9.1182563305 -29.583810091 -2.5505247498 3.0942113062 1
-5.8761923313 -29.583810091 -2.5548340479 1.783285051 1
-2.6341283321 -29.583810091 -1.3983533446 0.2332324375 1
0.607935667 -29.583810091 -0.2044329344 -0.9287127703 1
3.8499996662 -29.583810091 0.1075327659 -1.3893632103 1
7.0920636654 -29.583810091 -0.2367279676 -2.1546898127 1
10.3341276646 -29.583810091 -0.9074711644 -3.6282916183 1
13.5761916637 -29.583810091 -1.9753376228 -3.9778043183 1
16.8182556629 -29.583810091 -2.492234337 -2.9848190855 1
20.0603196621 -29.583810091 -1.9630318774 -1.1375720425 1
23.3023836613 -29.583810091 0 -0 0
26.5444476604 -29.583810091 0 -0 0
29.7865116596 -29.583810091 0 -0 0
33.0285756588 -29.583810091 0 -0 0
36.270639658 -29.583810091 0 -0 0
39.5127036572 -29.583810091 0 -0 0
42.7547676563 -29.583810091 0 -0 0
-35.0547683239 -32.8258740902 0 -0 0
-31.8127043247 -32.8258740902 0 -0 0
-28.5706403255 -32.8258740902 0 -0 0
-25.3285763264 -32.8258740902 0 -0 0
-22.0865123272 -32.8258740902 0 -0 0
-18.844448328 -32.8258740902 0 -0 0
-15.6023843288 -32.8258740902 0 -0 0
-12.3603203297 -32.8258740902 0 -0 0
-9.1182563305 -32.8258740902 -1.8051211027 4.3279821937 1
-5.8761923313 -32.8258740902 -1.8271389227 2.0546976108 1
-2.6341283321 -32.8258740902 -0.9867407211 -0.3594619113 1
0.607935667 -32.8258740902 -0.085305635 -2.1284798476 1
3.8499996662 -32.8258740902 -0.4329653058 -2.7116671962 1
7.0920636654 -32.8258740902 -0.4578822475 -3.1923969968 1
10.3341276646 -32.8258740902 -0.7171279545 -3.9534358897 1
13.5761916637 -32.8258740902 -1.6594888987 -4.4025872191 1
16.8182556629 -32.8258740902 -2.6714251395 -3.6760598496 1
20.0603196621 -32.8258740902 0 -0 0
23.3023836613 -32.8258740902 0 -0 0
26.5444476604 -32.8258740902 0 -0 0
29.7865116596 -32.8258740902 0 -0 0
33.0285756588 -32.8258740902 0 -0 0
36.270639658 -32.8258740902 0 -0 0
39.5127036572 -32.8258740902 0 -0 0
42.7547676563 -32.8258740902 0 -0 0
-35.0547683239 -36.0679380894 0 -0 0
-31.8127043247 -36.0679380894 0 -0 0
-28.5706403255 -36.0679380894 0 -0 0
-25.3285763264 -36.0679380894 0 -0 0
-22.0865123272 -36.0679380894 0 -0 0
-18.844448328 -36.0679380894 0 -0 0
-15.6023843288 -36.0679380894 0 -0 0
-12.3603203297 -36.0679380894 0 -0 0
-9.1182563305 -36.0679380894 0 -0 0
-5.8761923313 -36.0679380894 0 -0 0
-2.6341283321 -36.0679380894 0 -0 0
0.607935667 -36.0679380894 0 -0 0
3.8499996662 -36.0679380894 0 -0 0
7.0920636654 -36.0679380894 0 -0 0
10.3341276646 -36.0679380894 0 -0 0
13.5761916637 -36.0679380894 0 -0 0
16.8182556629 -36.0679380894 0 -0 0
20.0603196621 -36.0679380894 0 -0 0
23.3023836613 -36.0679380894 0 -0 0
26.5444476604 -36.0679380894 0 -0 0
29.7865116596 -36.0679380894 0 -0 0
33.0285756588 -36.0679380894 0 -0 0
36.270639658 -36.0679380894 0 -0 0
39.5127036572 -36.0679380894 0 -0 0
42.7547676563 -36.0679380894 0 -0 0
-35.0547683239 -39.3100020885 0 -0 0
-31.8127043247 -39.3100020885 0 -0 0
-28.5706403255 -39.3100020885 0 -0 0
-25.3285763264 -39.3100020885 0 -0 0
-22.0865123272 -39.3100020885 0 -0 0
-18.844448328 -39.3100020885 0 -0 0
-15.6023843288 -39.3100020885 0 -0 0
-12.3603203297 -39.3100020885 0 -0 0
-9.1182563305 -39.3100020885 0 -0 0
-5.8761923313 -39.3100020885 0 -0 0
-2.6341283321 -39.3100020885 0 -0 0
0.607935667 -39.3100020885 0 -0 0
3.8499996662 -39.3100020885 0 -0 0
7.0920636654 -39.3100020885 0 -0 0
10.3341276646 -39.3100020885 0 -0 0
13.5761916637 -39.3100020885 0 -0 0
16.8182556629 -39.3100020885 0 -0 0
20.0603196621 -39.3100020885 0 -0 0
23.3023836613 -39.3100020885 0 -0 0
26.5444476604 -39.3100020885 0 -0 0
29.7865116596 -39.3100020885 0 -0 0
33.0285756588 -39.3100020885 0 -0 0
36.270639658 -39.3100020885 0 -0 0
39.5127036572 -39.3100020885 0 -0 0
42.7547676563 -39.3100020885 0 -0 0
-35.0547683239 -42.5520660877 0 -0 0
-31.8127043247 -42.5520660877 0 -0 0
-28.5706403255 -42.5520660877 0 -0 0
-25.3285763264 -42.5520660877 0 -0 0
-22.0865123272 -42.5520660877 0 -0 0
-18.844448328 -42.5520660877 0 -0 0
-15.6023843288 -42.5520660877 0 -0 0
-12.3603203297 -42.5520660877 0 -0 0
-9.1182563305 -42.5520660877 0 -0 0
-5.8761923313 -42.5520660877 0 -0 0
-2.6341283321 -42.5520660877 0 -0 0
0.607935667 -42.5520660877 0 -0 0
3.8499996662 -42.5520660877 0 -0 0
7.0920636654 -42.5520660877 0 -0 0
10.3341276646 -42.5520660877 0 -0 0
13.5761916637 -42.5520660877 0 -0 0
16.8182556629 -42.5520660877 0 -0 0
20.0603196621 -42.5520660877 0 -0 0
23.3023836613 -42.5520660877 0 -0 0
26.5444476604 -42.5520660877 0 -0 0
29.7865116596 -42.5520660877 0 -0 0
33.0285756588 -42.5520660877 0 -0 0
36.270639658 -42.5520660877 0 -0 0
39.5127036572 -42.5520660877 0 -0 0
42.7547676563 -42.5520660877 0 -0 0
