TITLE = "B00080"
VARIABLES = "x", "y", "Vx", "Vy", "isValid"
ZONE T="Frame 0", I=25, J=25, F=POINT
-35.0547683239 35.2574698925 0 -0 0
-31.8127043247 35.2574698925 0 -0 0
-28.5706403255 35.2574698925 0 -0 0
-25.3285763264 35.2574698925 0 -0 0
-22.0865123272 35.2574698925 0 -0 0
-18.844448328 35.2574698925 0 -0 0
-15.6023843288 35.2574698925 0 -0 0
-12.3603203297 35.2574698925 0 -0 0
-9.1182563305 35.2574698925 0 -0 0
-5.8761923313 35.2574698925 0 -0 0
-2.6341283321 35.2574698925 0 -0 0
0.607935667 35.2574698925 0 -0 0
3.8499996662 35.2574698925 0 -0 0
7.0920636654 35.2574698925 0 -0 0
10.3341276646 35.2574698925 0 -0 0
13.5761916637 35.2574698925 0 -0 0
16.8182556629 35.2574698925 0 -0 0
20.0603196621 35.2574698925 0 -0 0
23.3023836613 35.2574698925 0 -0 0
26.5444476604 35.2574698925 0 -0 0
29.7865116596 35.2574698925 0 -0 0
33.0285756588 35.2574698925 0 -0 0
36.270639658 35.2574698925 0 -0 0
39.5127036572 35.2574698925 0 -0 0
42.7547676563 35.2574698925 0 -0 0
-35.0547683239 32.0154058933 0 -0 0
-31.8127043247 32.0154058933 0 -0 0
-28.5706403255 32.0154058933 0 -0 0
-25.3285763264 32.0154058933 0 -0 0
-22.0865123272 32.0154058933 0 -0 0
-18.844448328 32.0154058933 0 -0 0
-15.6023843288 32.0154058933 0 -0 0
-12.3603203297 32.0154058933 0 -0 0
-9.1182563305 32.0154058933 0 -0 0
-5.8761923313 32.0154058933 0 -0 0
-2.6341283321 32.0154058933 0 -0 0
0.607935667 32.0154058933 0 -0 0
3.8499996662 32.0154058933 0 -0 0
7.0920636654 32.0154058933 0 -0 0
10.3341276646 32.0154058933 0 -0 0
13.5761916637 32.0154058933 0 -0 0
16.8182556629 32.0154058933 0 -0 0
20.0603196621 32.0154058933 0 -0 0
23.3023836613 32.0154058933 0 -0 0
26.5444476604 32.0154058933 0 -0 0
29.7865116596 32.0154058933 0 -0 0
33.0285756588 32.0154058933 0 -0 0
36.270639658 32.0154058933 0 -0 0
39.5127036572 32.0154058933 0 -0 0
42.7547676563 32.0154058933 0 -0 0
-35.0547683239 28.7733418941 0 -0 0
-31.8127043247 28.7733418941 0 -0 0
-28.5706403255 28.7733418941 0 -0 0
-25.3285763264 28.7733418941 0 -0 0
-22.0865123272 28.7733418941 0 -0 0
-18.844448328 28.7733418941 0 -0 0
-15.6023843288 28.7733418941 0 -0 0
-12.3603203297 28.7733418941 0 -0 0
-9.1182563305 28.7733418941 0 -0 0
-5.8761923313 28.7733418941 0 -0 0
-2.6341283321 28.7733418941 0 -0 0
0.607935667 28.7733418941 0 -0 0
3.8499996662 28.7733418941 0 -0 0
7.0920636654 28.7733418941 0 -0 0
10.3341276646 28.7733418941 0 -0 0
13.5761916637 28.7733418941 0 -0 0
16.8182556629 28.7733418941 0 -0 0
20.0603196621 28.7733418941 0 -0 0
23.3023836613 28.7733418941 0 -0 0
26.5444476604 28.7733418941 0 -0 0
29.7865116596 28.7733418941 0 -0 0
33.0285756588 28.7733418941 0 -0 0
36.270639658 28.7733418941 0 -0 0
39.5127036572 28.7733418941 0 -0 0
42.7547676563 28.7733418941 0 -0 0
-35.0547683239 25.531277895 0 -0 0
-31.8127043247 25.531277895 0 -0 0
-28.5706403255 25.531277895 0 -0 0
-25.3285763264 25.531277895 0 -0 0
-22.0865123272 25.531277895 0 -0 0
-18.844448328 25.531277895 0 -0 0
-15.6023843288 25.531277895 0 -0 0
-12.3603203297 25.531277895 0 -0 0
-9.1182563305 25.531277895 2.8433350943 -0.8949968606 1
-5.8761923313 25.531277895 2.7095110374 -0.380165119 1
-2.6341283321 25.531277895 1.6993560959 0.3366727837 1
0.607935667 25.531277895 0.4541242177 0.5487645201 1
3.8499996662 25.531277895 0.2465060162 -0.5141570172 1
7.0920636654 25.531277895 2.4976875375 -1.7387362628 1
10.3341276646 25.531277895 4.1904572494 -1.9536336702 1
13.5761916637 25.531277895 3.6861812048 -0.946966899 1
16.8182556629 25.531277895 0 -0 0
20.0603196621 25.531277895 0 -0 0
23.3023836613 25.531277895 0 -0 0
26.5444476604 25.531277895 0 -0 0
29.7865116596 25.531277895 0 -0 0
33.0285756588 25.531277895 0 -0 0
36.270639658 25.531277895 0 -0 0
39.5127036572 25.531277895 0 -0 0
42.7547676563 25.531277895 0 -0 0
-35.0547683239 22.2892138958 0 -0 0
-31.8127043247 22.2892138958 0 -0 0
-28.5706403255 22.2892138958 0 -0 0
-25.3285763264 22.2892138958 0 -0 0
-22.0865123272 22.2892138958 0 -0 0
-18.844448328 22.2892138958 0 -0 0
-15.6023843288 22.2892138958 3.0080135685 -1.0322366974 1
-12.3603203297 22.2892138958 2.5077934938 -0.6292997746 1
-9.1182563305 22.2892138958 1.8248825196 -0.4595172943 1
-5.8761923313 22.2892138958 1.8232475105 0.3430196911 1
-2.6341283321 22.2892138958 1.6400861874 1.4873390521 1
0.607935667 22.2892138958 1.2467720779 1.8064354507 1
3.8499996662 22.2892138958 1.465408342 0.4883377257 1
7.0920636654 22.2892138958 2.78395694 -1.1805565513 1
10.3341276646 22.2892138958 3.4931100359 -1.4083116518 1
13.5761916637 22.2892138958 2.2599981341 -0.5688380683 1
16.8182556629 22.2892138958 0.0314097194 0.9013604124 1
20.0603196621 22.2892138958 -0.9927581734 2.0543135422 1
23.3023836613 22.2892138958 0 -0 0
26.5444476604 22.2892138958 0 -0 0
29.7865116596 22.2892138958 0 -0 0
33.0285756588 22.2892138958 0 -0 0
36.270639658 22.2892138958 0 -0 0
39.5127036572 22.2892138958 0 -0 0
42.7547676563 22.2892138958 0 -0 0
-35.0547683239 19.0471498966 0 -0 0
-31.8127043247 19.0471498966 0 -0 0
-28.5706403255 19.0471498966 0 -0 0
-25.3285763264 19.0471498966 0 -0 0
-22.0865123272 19.0471498966 0 -0 0
-18.844448328 19.0471498966 3.0248189857 -0.7598198828 1
-15.6023843288 19.0471498966 3.106112904 0.2527205037 1
-12.3603203297 19.0471498966 3.026396324 0.679037603 1
-9.1182563305 19.0471498966 2.0208053677 0.7336112764 1
-5.8761923313 19.0471498966 1.485367983 1.3495574581 1
-2.6341283321 19.0471498966 1.2322874527 2.0080448995 1
0.607935667 19.0471498966 1.1543422081 1.5938777819 1
3.8499996662 19.0471498966 1.1384706181 0.1658983148 1
7.0920636654 19.0471498966 0.667045876 -0.9667921764 1
10.3341276646 19.0471498966 0.3358504104 -1.1790643602 1
13.5761916637 19.0471498966 -0.1787725391 -0.7203698922 1
16.8182556629 19.0471498966 -0.6318500415 0.5690785641 1
20.0603196621 19.0471498966 -0.7929215695 1.906094612 1
23.3023836613 19.0471498966 -0.8475833342 2.4148742535 1
26.5444476604 19.0471498966 0 -0 0
29.7865116596 19.0471498966 0 -0 0
33.0285756588 19.0471498966 0 -0 0
36.270639658 19.0471498966 0 -0 0
39.5127036572 19.0471498966 0 -0 0
42.7547676563 19.0471498966 0 -0 0
-35.0547683239 15.8050858974 0 -0 0
-31.8127043247 15.8050858974 0 -0 0
-28.5706403255 15.8050858974 0 -0 0
-25.3285763264 15.8050858974 0 -0 0
-22.0865123272 15.8050858974 1.52030479 -1.6467853464 1
-18.844448328 15.8050858974 1.7570006575 0.3005737502 1
-15.6023843288 15.8050858974 2.2839021778 1.6657014802 1
-12.3603203297 15.8050858974 2.8951161178 1.9965318995 1
-9.1182563305 15.8050858974 2.1490729602 1.8120287517 1
-5.8761923313 15.8050858974 1.0615967346 2.2183330308 1
-2.6341283321 15.8050858974 0.490671652 2.3193921402 1
0.607935667 15.8050858974 0.5657848436 1.1396730216 1
3.8499996662 15.8050858974 0.270483073 -0.260636314 1
7.0920636654 15.8050858974 -1.2446871772 -0.9496387726 1
10.3341276646 15.8050858974 -2.1473745436 -1.1308268375 1
13.5761916637 15.8050858974 -1.674923505 -1.1797449346 1
16.8182556629 15.8050858974 -0.365412144 -0.4820058399 1
20.0603196621 15.8050858974 0.2277250386 0.4202134807 1
23.3023836613 15.8050858974 -0.1555126293 0.6739746609 1
26.5444476604 15.8050858974 -0.5646828354 0.1106981804 1
29.7865116596 15.8050858974 0 -0 0
33.0285756588 15.8050858974 0 -0 0
36.270639658 15.8050858974 0 -0 0
39.5127036572 15.8050858974 0 -0 0
42.7547676563 15.8050858974 0 -0 0
-35.0547683239 12.5630218983 0 -0 0
-31.8127043247 12.5630218983 0 -0 0
-28.5706403255 12.5630218983 0 -0 0
-25.3285763264 12.5630218983 0 -0 0
-22.0865123272 12.5630218983 1.7196418329 -1.0085375959 1
-18.844448328 12.5630218983 1.2157888828 0.8145088975 1
-15.6023843288 12.5630218983 1.5373286613 2.090290837 1
-12.3603203297 12.5630218983 2.1654470551 2.3931719616 1
-9.1182563305 12.5630218983 1.5385868483 2.2843466345 1
-5.8761923313 12.5630218983 0.2287878699 2.6061675953 1
-2.6341283321 12.5630218983 -0.5114795578 2.7221708083 1
0.607935667 12.5630218983 -0.1597231551 1.6305421429 1
3.8499996662 12.5630218983 -0.1671629747 0.3865378046 1
7.0920636654 12.5630218983 -1.3076648424 -0.3740865992 1
10.3341276646 12.5630218983 -2.0758321031 -1.0867160898 1
13.5761916637 12.5630218983 -1.1525515486 -1.6938204656 1
16.8182556629 12.5630218983 0.5671418407 -1.9369746943 1
20.0603196621 12.5630218983 1.1576766905 -1.7945124151 1
23.3023836613 12.5630218983 0.061259882 -2.0654056368 1
26.5444476604 12.5630218983 -0.8674867387 -2.0422020956 1
29.7865116596 12.5630218983 -1.10707467 -2.0576312669 1
33.0285756588 12.5630218983 0 -0 0
36.270639658 12.5630218983 0 -0 0
39.5127036572 12.5630218983 0 -0 0
42.7547676563 12.5630218983 0 -0 0
-35.0547683239 9.3209578991 0 -0 0
-31.8127043247 9.3209578991 0 -0 0
-28.5706403255 9.3209578991 0 -0 0
-25.3285763264 9.3209578991 3.3607935692 0.2972674992 1
-22.0865123272 9.3209578991 2.2650610762 -0.2740773754 1
-18.844448328 9.3209578991 1.0716582301 0.3364602174 1
-15.6023843288 9.3209578991 0.9291894592 1.1475659032 1
-12.3603203297 9.3209578991 1.319602824 1.9405240076 1
-9.1182563305 9.3209578991 0.9194693832 2.1810652413 1
-5.8761923313 9.3209578991 -0.3248785636 2.4051552343 1
-2.6341283321 9.3209578991 -1.2731646417 3.000787221 1
0.607935667 9.3209578991 -1.0864155078 2.8589520727 1
3.8499996662 9.3209578991 -0.777088628 1.6386626878 1
7.0920636654 9.3209578991 -0.7405186235 0.1152517203 1
10.3341276646 9.3209578991 -0.632238677 -0.9226556882 1
13.5761916637 9.3209578991 0.2279590804 -1.7112078735 1
16.8182556629 9.3209578991 1.0960260548 -2.5258198083 1
20.0603196621 9.3209578991 0.8155394967 -2.9911036799 1
23.3023836613 9.3209578991 -0.687486584 -3.2736815549 1
26.5444476604 9.3209578991 -1.6768258825 -2.753237792 1
29.7865116596 9.3209578991 -1.6192568061 -2.4368898089 1
33.0285756588 9.3209578991 0 -0 0
36.270639658 9.3209578991 0 -0 0
39.5127036572 9.3209578991 0 -0 0
42.7547676563 9.3209578991 0 -0 0
-35.0547683239 6.0788938999 0 -0 0
-31.8127043247 6.0788938999 0 -0 0
-28.5706403255 6.0788938999 0 -0 0
-25.3285763264 6.0788938999 3.6299637661 2.8534048176 1
-22.0865123272 6.0788938999 2.379924161 1.0354103209 1
-18.844448328 6.0788938999 0.7914035625 -0.2632429306 1
-15.6023843288 6.0788938999 0.6159891327 0.0827677288 1
-12.3603203297 6.0788938999 1.040033109 1.4398638543 1
-9.1182563305 6.0788938999 1.1644401629 2.1150086109 1
-5.8761923313 6.0788938999 0.044733392 2.0334969934 1
-2.6341283321 6.0788938999 -1.2443243199 2.4656335096 1
0.607935667 6.0788938999 -1.8084193522 2.8001762902 1
3.8499996662 6.0788938999 -1.8677919206 1.7462791951 1
7.0920636654 6.0788938999 -1.0823381002 0.2085468391 1
10.3341276646 6.0788938999 -0.1113589589 -0.6030913192 1
13.5761916637 6.0788938999 0.6561770665 -1.226144544 1
16.8182556629 6.0788938999 0.5391453678 -2.195891135 1
20.0603196621 6.0788938999 -0.4746583386 -2.7479408458 1
23.3023836613 6.0788938999 -1.8221825656 -2.6030177496 1
26.5444476604 6.0788938999 -2.4847172206 -2.06200669 1
29.7865116596 6.0788938999 -2.0749194873 -2.0683664676 1
33.0285756588 6.0788938999 -1.1434895524 -1.923685075 1
36.270639658 6.0788938999 0 -0 0
39.5127036572 6.0788938999 0 -0 0
42.7547676563 6.0788938999 0 -0 0
-35.0547683239 2.8368299007 0 -0 0
-31.8127043247 2.8368299007 0 -0 0
-28.5706403255 2.8368299007 3.6193502475 5.6912814274 1
-25.3285763264 2.8368299007 2.421901773 4.1174935739 1
-22.0865123272 2.8368299007 0.3975762293 1.8435959002 1
-18.844448328 2.8368299007 -1.0170050708 0.2588155359 1
-15.6023843288 2.8368299007 -0.273755299 0.6700218038 1
-12.3603203297 2.8368299007 1.0528257339 1.8021475904 1
-9.1182563305 2.8368299007 1.5563136376 1.8748259319 1
-5.8761923313 2.8368299007 0.3930135652 1.443696388 1
-2.6341283321 2.8368299007 -1.1813059682 1.5635644423 1
0.607935667 2.8368299007 -2.2811774646 1.6603358425 1
3.8499996662 2.8368299007 -2.5506385815 0.5261766738 1
7.0920636654 2.8368299007 -1.7233541942 -0.8361047554 1
10.3341276646 2.8368299007 -0.6000273379 -1.0980529829 1
13.5761916637 2.8368299007 0.024144523 -1.0430584041 1
16.8182556629 2.8368299007 -0.1106933494 -1.4040023537 1
20.0603196621 2.8368299007 -0.908143209 -1.4490535714 1
23.3023836613 2.8368299007 -1.7611244131 -0.9619461032 1
26.5444476604 2.8368299007 -2.2382241312 -0.6495080261 1
29.7865116596 2.8368299007 -1.8404267303 -1.1914189445 1
33.0285756588 2.8368299007 -1.1725119444 -1.538323405 1
36.270639658 2.8368299007 0 -0 0
39.5127036572 2.8368299007 0 -0 0
42.7547676563 2.8368299007 0 -0 0
-35.0547683239 -0.4052340984 0 -0 0
-31.8127043247 -0.4052340984 0 -0 0
-28.5706403255 -0.4052340984 2.0947415943 4.7418263857 1
-25.3285763264 -0.4052340984 0.3117252139 2.8581510239 1
-22.0865123272 -0.4052340984 -2.2059441007 1.3266862026 1
-18.844448328 -0.4052340984 -3.2272113668 1.4198696411 1
-15.6023843288 -0.4052340984 -1.4835021402 2.7158756461 1
-12.3603203297 -0.4052340984 0.4572880281 2.9456468049 1
-9.1182563305 -0.4052340984 0.6916842395 1.7055824157 1
-5.8761923313 -0.4052340984 -0.698615138 1.0889576978 1
-2.6341283321 -0.4052340984 -2.0308989444 1.1647944903 1
0.607935667 -0.4052340984 -2.5593882199 0.7003972677 1
3.8499996662 -0.4052340984 -2.3873746995 -0.71110937 1
7.0920636654 -0.4052340984 -1.6855774836 -1.8602855231 1
10.3341276646 -0.4052340984 -0.9302436852 -1.8499084241 1
13.5761916637 -0.4052340984 -0.5817101413 -1.5026482019 1
16.8182556629 -0.4052340984 -0.3290117925 -1.4967177841 1
20.0603196621 -0.4052340984 -0.4920394058 -1.5484400802 1
23.3023836613 -0.4052340984 -1.0501954527 -1.2351925754 1
26.5444476604 -0.4052340984 -1.5890874922 -0.9129055691 1
29.7865116596 -0.4052340984 -1.388834965 -0.7481688958 1
33.0285756588 -0.4052340984 -0.8459465135 -0.7160084338 1
36.270639658 -0.4052340984 0 -0 0
39.5127036572 -0.4052340984 0 -0 0
42.7547676563 -0.4052340984 0 -0 0
-35.0547683239 -3.6472980976 0 -0 0
-31.8127043247 -3.6472980976 0 -0 0
-28.5706403255 -3.6472980976 0.0337508334 3.1569962578 1
-25.3285763264 -3.6472980976 -1.3738866343 1.2835738974 1
-22.0865123272 -3.6472980976 -3.080849825 0.4831395141 1
-18.844448328 -3.6472980976 -3.3463707663 2.4625523554 1
-15.6023843288 -3.6472980976 -1.4901883158 4.6337557596 1
-12.3603203297 -3.6472980976 -0.1901222836 4.4551701972 1
-9.1182563305 -3.6472980976 -1.0054513843 2.1279774182 1
-5.8761923313 -3.6472980976 -2.5855746336 1.1474886064 1
-2.6341283321 -3.6472980976 -3.2577928298 1.2776113228 1
0.607935667 -3.6472980976 -2.7153967681 0.6384524662 1
3.8499996662 -3.6472980976 -1.6278346403 -0.8308270578 1
7.0920636654 -3.6472980976 -0.7140831087 -1.923226578 1
10.3341276646 -3.6472980976 -0.3067653468 -2.033774024 1
13.5761916637 -3.6472980976 -0.2511953633 -1.9333954889 1
16.8182556629 -3.6472980976 0.0865273532 -2.0948706739 1
20.0603196621 -3.6472980976 0.3229976616 -2.3586933496 1
23.3023836613 -3.6472980976 -0.319783427 -2.226487846 1
26.5444476604 -3.6472980976 -1.0656934665 -1.4504470278 1
29.7865116596 -3.6472980976 -1.0697730632 -0.5515450546 1
33.0285756588 -3.6472980976 -0.5144933792 0.097348909 1
36.270639658 -3.6472980976 0 -0 0
39.5127036572 -3.6472980976 0 -0 0
42.7547676563 -3.6472980976 0 -0 0
-35.0547683239 -6.8893620968 0 -0 0
-31.8127043247 -6.8893620968 0 -0 0
-28.5706403255 -6.8893620968 -2.3749691627 2.4025034398 1
-25.3285763264 -6.8893620968 -2.381768566 1.4748234578 1
-22.0865123272 -6.8893620968 -2.1607490083 1.3002506878 1
-18.844448328 -6.8893620968 -1.6912867299 3.3951794853 1
-15.6023843288 -6.8893620968 -0.3969771789 5.4103056498 1
-12.3603203297 -6.8893620968 -0.3110703422 5.258172209 1
-9.1182563305 -6.8893620968 -1.9358282254 3.1770541805 1
-5.8761923313 -6.8893620968 -3.5772992639 2.1608069809 1
-2.6341283321 -6.8893620968 -3.6019805031 2.23818971 1
0.607935667 -6.8893620968 -2.2585897315 1.7047063347 1
3.8499996662 -6.8893620968 -0.8486633007 0.2745583293 1
7.0920636654 -6.8893620968 0.0014815225 -1.0786063392 1
10.3341276646 -6.8893620968 0.2788933867 -1.7490618809 1
13.5761916637 -6.8893620968 0.4802301642 -2.3062130313 1
16.8182556629 -6.8893620968 0.8027618934 -2.8053787289 1
20.0603196621 -6.8893620968 0.8970296765 -3.0506823228 1
23.3023836613 -6.8893620968 -0.0914228221 -2.623918087 1
26.5444476604 -6.8893620968 -0.990475124 -1.5621022943 1
29.7865116596 -6.8893620968 -1.1191378061 -0.4560856246 1
33.0285756588 -6.8893620968 -0.4533344162 0.2582293557 1
36.270639658 -6.8893620968 0 -0 0
39.5127036572 -6.8893620968 0 -0 0
42.7547676563 -6.8893620968 0 -0 0
-35.0547683239 -10.131426096 0 -0 0
-31.8127043247 -10.131426096 0 -0 0
-28.5706403255 -10.131426096 -4.3949010158 1.6457395747 1
-25.3285763264 -10.131426096 -3.2079707977 2.4008652604 1
-22.0865123272 -10.131426096 -1.5316881065 3.4703032448 1
-18.844448328 -10.131426096 -0.3265662236 4.8812861663 1
-15.6023843288 -10.131426096 0.8598885512 6.0546048964 1
-12.3603203297 -10.131426096 0.2423019256 6.3223460078 1
-9.1182563305 -10.131426096 -1.5412300375 5.3979055479 1
-5.8761923313 -10.131426096 -3.0494048116 4.4740692714 1
-2.6341283321 -10.131426096 -2.6826422376 4.0741376025 1
0.607935667 -10.131426096 -1.2691601527 3.074833354 1
3.8499996662 -10.131426096 -0.0980574695 1.2518757821 1
7.0920636654 -10.131426096 0.4731102508 -0.4886726912 1
10.3341276646 -10.131426096 0.8069595489 -1.4097288107 1
13.5761916637 -10.131426096 1.4623271878 -1.9671504999 1
16.8182556629 -10.131426096 1.9273298016 -2.5549004749 1
20.0603196621 -10.131426096 1.596246054 -2.6630172979 1
23.3023836613 -10.131426096 -0.0097308114 -1.9835010434 1
26.5444476604 -10.131426096 -1.1173342386 -1.0404088742 1
29.7865116596 -10.131426096 -1.2161625345 -0.4679807684 1
33.0285756588 -10.131426096 -0.44048597 -0.2861335291 1
36.270639658 -10.131426096 0 -0 0
39.5127036572 -10.131426096 0 -0 0
42.7547676563 -10.131426096 0 -0 0
-35.0547683239 -13.3734900951 0 -0 0
-31.8127043247 -13.3734900951 0 -0 0
-28.5706403255 -13.3734900951 0 -0 0
-25.3285763264 -13.3734900951 -3.9307112265 2.9058872495 1
-22.0865123272 -13.3734900951 -2.387443542 4.6205766506 1
-18.844448328 -13.3734900951 -0.8816390027 5.8388585825 1
-15.6023843288 -13.3734900951 0.9500853429 6.7313211036 1
-12.3603203297 -13.3734900951 1.139999344 7.2799914937 1
-9.1182563305 -13.3734900951 0.1581428634 7.1369706241 1
-5.8761923313 -13.3734900951 -1.0779686404 6.1093479585 1
-2.6341283321 -13.3734900951 -0.7428052962 5.1343988533 1
0.607935667 -13.3734900951 0.112477621 3.6991833765 1
3.8499996662 -13.3734900951 0.7830275757 1.5821221725 1
7.0920636654 -13.3734900951 0.9902324392 -0.2534627306 1
10.3341276646 -13.3734900951 1.2793332908 -1.1102701842 1
13.5761916637 -13.3734900951 2.2847095673 -1.2367471173 1
16.8182556629 -13.3734900951 2.9271770904 -1.5260647624 1
20.0603196621 -13.3734900951 2.2849070365 -1.7095352728 1
23.3023836613 -13.3734900951 0.2432531143 -1.3616222548 1
26.5444476604 -13.3734900951 -0.9757564948 -0.8596330338 1
29.7865116596 -13.3734900951 -0.8631350179 -0.7270603703 1
33.0285756588 -13.3734900951 -0.1071874495 -0.8965064887 1
36.270639658 -13.3734900951 0 -0 0
39.5127036572 -13.3734900951 0 -0 0
42.7547676563 -13.3734900951 0 -0 0
-35.0547683239 -16.6155540943 0 -0 0
-31.8127043247 -16.6155540943 0 -0 0
-28.5706403255 -16.6155540943 0 -0 0
-25.3285763264 -16.6155540943 -3.9862082347 2.2846688053 1
-22.0865123272 -16.6155540943 -3.663255449 3.8158309311 1
-18.844448328 -16.6155540943 -3.0198753101 5.3450882637 1
-15.6023843288 -16.6155540943 -1.3985787434 6.7669935892 1
-12.3603203297 -16.6155540943 0.2102666935 7.2390302142 1
-9.1182563305 -16.6155540943 1.0809402656 6.5150083489 1
-5.8761923313 -16.6155540943 0.9322684243 4.9269082029 1
-2.6341283321 -16.6155540943 1.2804026139 3.772926965 1
0.607935667 -16.6155540943 1.5243814428 2.5611980527 1
3.8499996662 -16.6155540943 1.571390746 0.9970174248 1
7.0920636654 -16.6155540943 1.1098042142 -0.2156366716 1
10.3341276646 -16.6155540943 1.0282667807 -0.6290093831 1
13.5761916637 -16.6155540943 2.052627958 -0.3301690936 1
16.8182556629 -16.6155540943 2.9195763364 -0.5093259655 1
20.0603196621 -16.6155540943 2.4508053513 -0.9512984653 1
23.3023836613 -16.6155540943 0.3869822614 -1.2309755957 1
26.5444476604 -16.6155540943 -0.8681765223 -1.2262991377 1
29.7865116596 -16.6155540943 -0.6888148968 -1.3244461043 1
33.0285756588 -16.6155540943 0 -0 0
36.270639658 -16.6155540943 0 -0 0
39.5127036572 -16.6155540943 0 -0 0
42.7547676563 -16.6155540943 0 -0 0
-35.0547683239 -19.8576180935 0 -0 0
-31.8127043247 -19.8576180935 0 -0 0
-28.5706403255 -19.8576180935 0 -0 0
-25.3285763264 -19.8576180935 0 -0 0
-22.0865123272 -19.8576180935 -3.689435522 2.1944762408 1
-18.844448328 -19.8576180935 -4.6079516028 3.5458781038 1
-15.6023843288 -19.8576180935 -4.6243943892 5.3018539745 1
-12.3603203297 -19.8576180935 -2.9012225672 5.6763051671 1
-9.1182563305 -19.8576180935 -0.5721296374 4.2929175148 1
-5.8761923313 -19.8576180935 0.8408821371 2.4172177665 1
-2.6341283321 -19.8576180935 1.6740946777 1.4272128396 1
0.607935667 -19.8576180935 1.9689327051 0.8829444434 1
3.8499996662 -19.8576180935 1.7939820562 0.1823195879 1
7.0920636654 -19.8576180935 0.9262242502 -0.3144993132 1
10.3341276646 -19.8576180935 0.1520042102 -0.1430291918 1
13.5761916637 -19.8576180935 0.661126177 0.4997239861 1
16.8182556629 -19.8576180935 1.7181109934 0.4821711524 1
20.0603196621 -19.8576180935 1.9291227256 -0.3849746952 1
23.3023836613 -19.8576180935 0.5061911414 -1.3653539403 1
26.5444476604 -19.8576180935 -0.7723740499 -1.6987872396 1
29.7865116596 -19.8576180935 -0.7177180222 -1.8262211738 1
33.0285756588 -19.8576180935 0 -0 0
36.270639658 -19.8576180935 0 -0 0
39.5127036572 -19.8576180935 0 -0 0
42.7547676563 -19.8576180935 0 -0 0
-35.0547683239 -23.0996820927 0 -0 0
-31.8127043247 -23.0996820927 0 -0 0
-28.5706403255 -23.0996820927 0 -0 0
-25.3285763264 -23.0996820927 0 -0 0
-22.0865123272 -23.0996820927 -3.0952397164 0.8175234738 1
-18.844448328 -23.0996820927 -4.9362590053 2.1466337321 1
-15.6023843288 -23.0996820927 -6.2130585605 3.6044476608 1
-12.3603203297 -23.0996820927 -5.4795460942 3.7844031282 1
-9.1182563305 -23.0996820927 -3.0197421542 2.189793291 1
-5.8761923313 -23.0996820927 -0.9994372533 0.7823448122 1
-2.6341283321 -23.0996820927 0.2518094353 0.5189988255 1
0.607935667 -23.0996820927 1.0880515737 0.445103059 1
3.8499996662 -23.0996820927 1.3860974194 0.081479442 1
7.0920636654 -23.0996820927 0.5813172409 -0.5367427122 1
10.3341276646 -23.0996820927 -0.5908891395 -0.6884914428 1
13.5761916637 -23.0996820927 -0.8925678984 -0.2258097908 1
16.8182556629 -23.0996820927 -0.1843099812 0.0022995806 1
20.0603196621 -23.0996820927 0.3760147173 -0.3641453517 1
23.3023836613 -23.0996820927 -0.2227522823 -1.2201089753 1
26.5444476604 -23.0996820927 -1.1053998803 -1.7728151052 1
29.7865116596 -23.0996820927 0 -0 0
33.0285756588 -23.0996820927 0 -0 0
36.270639658 -23.0996820927 0 -0 0
39.5127036572 -23.0996820927 0 -0 0
42.7547676563 -23.0996820927 0 -0 0
-35.0547683239 -26.3417460918 0 -0 0
-31.8127043247 -26.3417460918 0 -0 0
-28.5706403255 -26.3417460918 0 -0 0
-25.3285763264 -26.3417460918 0 -0 0
-22.0865123272 -26.3417460918 0 -0 0
-18.844448328 -26.3417460918 -4.4584127387 1.6487900819 1
-15.6023843288 -26.3417460918 -5.9012546344 2.2058726917 1
-12.3603203297 -26.3417460918 -5.7865346695 2.0172110652 1
-9.1182563305 -26.3417460918 -4.123478643 1.0246317162 1
-5.8761923313 -26.3417460918 -2.4035320009 0.7956033316 1
-2.6341283321 -26.3417460918 -1.1408238687 1.1902465842 1
0.607935667 -26.3417460918 -0.1470486268 1.1874982442 1
3.8499996662 -26.3417460918 0.5584802935 0.6298682158 1
7.0920636654 -26.3417460918 0.4059221353 -0.7182786507 1
10.3341276646 -26.3417460918 -0.5085830781 -1.9159328977 1
13.5761916637 -26.3417460918 -1.154559077 -2.0691909168 1
16.8182556629 -26.3417460918 -1.23005445 -1.4768374025 1
20.0603196621 -26.3417460918 -0.8947242081 -1.0813117282 1
23.3023836613 -26.3417460918 -1.0894628446 -1.2823930072 1
26.5444476604 -26.3417460918 0 -0 0
29.7865116596 -26.3417460918 0 -0 0
33.0285756588 -26.3417460918 0 -0 0
36.270639658 -26.3417460918 0 -0 0
39.5127036572 -26.3417460918 0 -0 0
42.7547676563 -26.3417460918 0 -0 0
-35.0547683239 -29.583810091 0 -0 0
-31.8127043247 -29.583810091 0 -0 0
-28.5706403255 -29.583810091 0 -0 0
-25.3285763264 -29.583810091 0 -0 0
-22.0865123272 -29.583810091 0 -0 0
-18.844448328 -29.583810091 0 -0 0
-15.6023843288 -29.583810091 -4.6195980607 0.5985172569 1
-12.3603203297 -29.583810091 -4.5930417696 -0.2238279839 1
-9.1182563305 -29.583810091 -3.6588839512 -0.4634138017 1
-5.8761923313 -29.583810091 -2.4835084009 0.5856845116 1
-2.6341283321 -29.583810091 -1.2971567011 1.3131313284 1
0.607935667 -29.583810091 -0.7191030998 1.2319568276 1
3.8499996662 -29.583810091 -0.2310681263 0.4679485363 1
7.0920636654 -29.583810091 -0.1918550271 -1.5201301173 1
10.3341276646 -29.583810091 -0.4591088062 -3.7190100126 1
13.5761916637 -29.583810091 -0.5116405677 -4.6488588349 1
16.8182556629 -29.583810091 -0.8512506308 -3.9288826734 1
20.0603196621 -29.583810091 -0.9119914436 -2.526116616 1
23.3023836613 -29.583810091 0 -0 0
26.5444476604 -29.583810091 0 -0 0
29.7865116596 -29.583810091 0 -0 0
33.0285756588 -29.583810091 0 -0 0
36.270639658 -29.583810091 0 -0 0
39.5127036572 -29.583810091 0 -0 0
42.7547676563 -29.583810091 0 -0 0
-35.0547683239 -32.8258740902 0 -0 0
-31.8127043247 -32.8258740902 0 -0 0
-28.5706403255 -32.8258740902 0 -0 0
-25.3285763264 -32.8258740902 0 -0 0
-22.0865123272 -32.8258740902 0 -0 0
-18.844448328 -32.8258740902 0 -0 0
-15.6023843288 -32.8258740902 0 -0 0
-12.3603203297 -32.8258740902 0 -0 0
-9.1182563305 -32.8258740902 -2.7966399603 -1.7589490811 1
-5.8761923313 -32.8258740902 -1.5138014396 -0.2601593042 1
-2.6341283321 -32.8258740902 -0.4181168043 0.3890231165 1
0.607935667 -32.8258740902 -0.5377089226 0.2175819814 1
3.8499996662 -32.8258740902 -0.9248822747 -0.9015923029 1
7.0920636654 -32.8258740902 -1.1269699976 -2.8081997612 1
10.3341276646 -32.8258740902 -0.7269997557 -5.1236757302 1
13.5761916637 -32.8258740902 0.1542324006 -6.2277673012 1
16.8182556629 -32.8258740902 0 -0 0
20.0603196621 -32.8258740902 0 -0 0
23.3023836613 -32.8258740902 0 -0 0
26.5444476604 -32.8258740902 0 -0 0
29.7865116596 -32.8258740902 0 -0 0
33.0285756588 -32.8258740902 0 -0 0
36.270639658 -32.8258740902 0 -0 0
39.5127036572 -32.8258740902 0 -0 0
42.7547676563 -32.8258740902 0 -0 0
-35.0547683239 -36.0679380894 0 -0 0
-31.8127043247 -36.0679380894 0 -0 0
-28.5706403255 -36.0679380894 0 -0 0
-25.3285763264 -36.0679380894 0 -0 0
-22.0865123272 -36.0679380894 0 -0 0
-18.844448328 -36.0679380894 0 -0 0
-15.6023843288 -36.0679380894 0 -0 0
-12.3603203297 -36.0679380894 0 -0 0
-9.1182563305 -36.0679380894 0 -0 0
-5.8761923313 -36.0679380894 0 -0 0
-2.6341283321 -36.0679380894 0 -0 0
0.607935667 -36.0679380894 0 -0 0
3.8499996662 -36.0679380894 0 -0 0
7.0920636654 -36.0679380894 0 -0 0
10.3341276646 -36.0679380894 0 -0 0
13.5761916637 -36.0679380894 0 -0 0
16.8182556629 -36.0679380894 0 -0 0
20.0603196621 -36.0679380894 0 -0 0
23.3023836613 -36.0679380894 0 -0 0
26.5444476604 -36.0679380894 0 -0 0
29.7865116596 -36.0679380894 0 -0 0
33.0285756588 -36.0679380894 0 -0 0
36.270639658 -36.0679380894 0 -0 0
39.5127036572 -36.0679380894 0 -0 0
42.7547676563 -36.0679380894 0 -0 0
-35.0547683239 -39.3100020885 0 -0 0
-31.8127043247 -39.3100020885 0 -0 0
-28.5706403255 -39.3100020885 0 -0 0
-25.3285763264 -39.3100020885 0 -0 0
-22.0865123272 -39.3100020885 0 -0 0
-18.844448328 -39.3100020885 0 -0 0
-15.6023843288 -39.3100020885 0 -0 0
-12.3603203297 -39.3100020885 0 -0 0
-9.1182563305 -39.3100020885 0 -0 0
-5.8761923313 -39.3100020885 0 -0 0
-2.6341283321 -39.3100020885 0 -0 0
0.607935667 -39.3100020885 0 -0 0
3.8499996662 -39.3100020885 0 -0 0
7.0920636654 -39.3100020885 0 -0 0
10.3341276646 -39.3100020885 0 -0 0
13.5761916637 -39.3100020885 0 -0 0
16.8182556629 -39.3100020885 0 -0 0
20.0603196621 -39.3100020885 0 -0 0
23.3023836613 -39.3100020885 0 -0 0
26.5444476604 -39.3100020885 0 -0 0
29.7865116596 -39.3100020885 0 -0 0
33.0285756588 -39.3100020885 0 -0 0
36.270639658 -39.3100020885 0 -0 0
39.5127036572 -39.3100020885 0 -0 0
42.7547676563 -39.3100020885 0 -0 0
-35.0547683239 -42.5520660877 0 -0 0
-31.8127043247 -42.5520660877 0 -0 0
-28.5706403255 -42.5520660877 0 -0 0
-25.3285763264 -42.5520660877 0 -0 0
-22.0865123272 -42.5520660877 0 -0 0
-18.844448328 -42.5520660877 0 -0 0
-15.6023843288 -42.5520660877 0 -0 0
-12.3603203297 -42.5520660877 0 -0 0
-9.1182563305 -42.5520660877 0 -0 0
-5.8761923313 -42.5520660877 0 -0 0
-2.6341283321 -42.5520660877 0 -0 0
0.607935667 -42.5520660877 0 -0 0
3.8499996662 -42.5520660877 0 -0 0
7.0920636654 -42.5520660877 0 -0 0
10.3341276646 -42.5520660877 0 -0 0
13.5761916637 -42.5520660877 0 -0 0
16.8182556629 -42.5520660877 0 -0 0
20.0603196621 -42.5520660877 0 -0 0
23.3023836613 -42.5520660877 0 -0 0
26.5444476604 -42.5520660877 0 -0 0
29.7865116596 -42.5520660877 0 -0 0
33.0285756588 -42.5520660877 0 -0 0
36.270639658 -42.5520660877 0 -0 0
39.5127036572 -42.5520660877 0 -0 0
42.7547676563 -42.5520660877 0 -0 0
