TITLE = "B00080"
VARIABLES = "x", "y", "Vx", "Vy", "isValid"
ZONE T="Frame 0", I=25, J=25, F=POINT
-35.0547683239 35.2574698925 0 -0 0
-31.8127043247 35.2574698925 0 -0 0
-28.5706403255 35.2574698925 0 -0 0
-25.3285763264 35.2574698925 0 -0 0
-22.0865123272 35.2574698925 0 -0 0
-18.844448328 35.2574698925 0 -0 0
-15.6023843288 35.2574698925 0 -0 0
-12.3603203297 35.2574698925 0 -0 0
-9.1182563305 35.2574698925 0 -0 0
-5.8761923313 35.2574698925 0 -0 0
-2.6341283321 35.2574698925 0 -0 0
0.607935667 35.2574698925 0 -0 0
3.8499996662 35.2574698925 0 -0 0
7.0920636654 35.2574698925 0 -0 0
10.3341276646 35.2574698925 0 -0 0
13.5761916637 35.2574698925 0 -0 0
16.8182556629 35.2574698925 0 -0 0
20.0603196621 35.2574698925 0 -0 0
23.3023836613 35.2574698925 0 -0 0
26.5444476604 35.2574698925 0 -0 0
29.7865116596 35.2574698925 0 -0 0
33.0285756588 35.2574698925 0 -0 0
36.270639658 35.2574698925 0 -0 0
39.5127036572 35.2574698925 0 -0 0
42.7547676563 35.2574698925 0 -0 0
-35.0547683239 32.0154058933 0 -0 0
-31.8127043247 32.0154058933 0 -0 0
-28.5706403255 32.0154058933 0 -0 0
-25.3285763264 32.0154058933 0 -0 0
-22.0865123272 32.0154058933 0 -0 0
-18.844448328 32.0154058933 0 -0 0
-15.6023843288 32.0154058933 0 -0 0
-12.3603203297 32.0154058933 0 -0 0
-9.1182563305 32.0154058933 0 -0 0
-5.8761923313 32.0154058933 0 -0 0
-2.6341283321 32.0154058933 0 -0 0
0.607935667 32.0154058933 0 -0 0
3.8499996662 32.0154058933 0 -0 0
7.0920636654 32.0154058933 0 -0 0
10.3341276646 32.0154058933 0 -0 0
13.5761916637 32.0154058933 0 -0 0
16.8182556629 32.0154058933 0 -0 0
20.0603196621 32.0154058933 0 -0 0
23.3023836613 32.0154058933 0 -0 0
26.5444476604 32.0154058933 0 -0 0
29.7865116596 32.0154058933 0 -0 0
33.0285756588 32.0154058933 0 -0 0
36.270639658 32.0154058933 0 -0 0
39.5127036572 32.0154058933 0 -0 0
42.7547676563 32.0154058933 0 -0 0
-35.0547683239 28.7733418941 0 -0 0
-31.8127043247 28.7733418941 0 -0 0
-28.5706403255 28.7733418941 0 -0 0
-25.3285763264 28.7733418941 0 -0 0
-22.0865123272 28.7733418941 0 -0 0
-18.844448328 28.7733418941 0 -0 0
-15.6023843288 28.7733418941 0 -0 0
-12.3603203297 28.7733418941 0 -0 0
-9.1182563305 28.7733418941 0 -0 0
-5.8761923313 28.7733418941 0 -0 0
-2.6341283321 28.7733418941 0 -0 0
0.607935667 28.7733418941 0 -0 0
3.8499996662 28.7733418941 0 -0 0
7.0920636654 28.7733418941 0 -0 0
10.3341276646 28.7733418941 0 -0 0
13.5761916637 28.7733418941 0 -0 0
16.8182556629 28.7733418941 0 -0 0
20.0603196621 28.7733418941 0 -0 0
23.3023836613 28.7733418941 0 -0 0
26.5444476604 28.7733418941 0 -0 0
29.7865116596 28.7733418941 0 -0 0
33.0285756588 28.7733418941 0 -0 0
36.270639658 28.7733418941 0 -0 0
39.5127036572 28.7733418941 0 -0 0
42.7547676563 28.7733418941 0 -0 0
-35.0547683239 25.531277895 0 -0 0
-31.8127043247 25.531277895 0 -0 0
-28.5706403255 25.531277895 0 -0 0
-25.3285763264 25.531277895 0 -0 0
-22.0865123272 25.531277895 0 -0 0
-18.844448328 25.531277895 0 -0 0
-15.6023843288 25.531277895 0 -0 0
-12.3603203297 25.531277895 0 -0 0
-9.1182563305 25.531277895 1.8292363539 0.7275880873 1
-5.8761923313 25.531277895 3.4466262605 0.6505682155 1
-2.6341283321 25.531277895 4.4794954483 0.6641950271 1
0.607935667 25.531277895 3.3324703209 0.7795062674 1
3.8499996662 25.531277895 0.3443466451 1.0562504211 1
7.0920636654 25.531277895 -1.2108966881 1.3179946877 1
10.3341276646 25.531277895 -0.5925299609 1.5777757357 1
13.5761916637 25.531277895 1.4707972292 1.3277804358 1
16.8182556629 25.531277895 0 -0 0
20.0603196621 25.531277895 0 -0 0
23.3023836613 25.531277895 0 -0 0
26.5444476604 25.531277895 0 -0 0
29.7865116596 25.531277895 0 -0 0
33.0285756588 25.531277895 0 -0 0
36.270639658 25.531277895 0 -0 0
39.5127036572 25.531277895 0 -0 0
42.7547676563 25.531277895 0 -0 0
-35.0547683239 22.2892138958 0 -0 0
-31.8127043247 22.2892138958 0 -0 0
-28.5706403255 22.2892138958 0 -0 0
-25.3285763264 22.2892138958 0 -0 0
-22.0865123272 22.2892138958 0 -0 0
-18.844448328 22.2892138958 0 -0 0
-15.6023843288 22.2892138958 0.1490017965 -0.1250902325 1
-12.3603203297 22.2892138958 0.6030376493 0.3925294032 1
-9.1182563305 22.2892138958 1.9659105803 0.8330858764 1
-5.8761923313 22.2892138958 3.3383663175 1.33746911 1
-2.6341283321 22.2892138958 3.7723342553 1.6145181483 1
0.607935667 22.2892138958 2.6673890978 1.7470607687 1
3.8499996662 22.2892138958 0.9597710731 2.0091142226 1
7.0920636654 22.2892138958 0.6202920146 2.3381366208 1
10.3341276646 22.2892138958 1.6650853701 2.7958842027 1
13.5761916637 22.2892138958 2.9981570153 2.4261262258 1
16.8182556629 22.2892138958 2.8367491631 1.5758611295 1
20.0603196621 22.2892138958 1.942417327 0.5832228266 1
23.3023836613 22.2892138958 0 -0 0
26.5444476604 22.2892138958 0 -0 0
29.7865116596 22.2892138958 0 -0 0
33.0285756588 22.2892138958 0 -0 0
36.270639658 22.2892138958 0 -0 0
39.5127036572 22.2892138958 0 -0 0
42.7547676563 22.2892138958 0 -0 0
-35.0547683239 19.0471498966 0 -0 0
-31.8127043247 19.0471498966 0 -0 0
-28.5706403255 19.0471498966 0 -0 0
-25.3285763264 19.0471498966 0 -0 0
-22.0865123272 19.0471498966 0 -0 0
-18.844448328 19.0471498966 1.2200022393 -0.9223350272 1
-15.6023843288 19.0471498966 0.8342359687 -0.9771685961 1
-12.3603203297 19.0471498966 1.0809424547 -0.158185805 1
-9.1182563305 19.0471498966 2.0387746154 1.0661057665 1
-5.8761923313 19.0471498966 2.8504642168 2.0164809725 1
-2.6341283321 19.0471498966 2.9592703706 2.2028156928 1
0.607935667 19.0471498966 2.518811613 1.9450114507 1
3.8499996662 19.0471498966 1.9234521277 1.8856132174 1
7.0920636654 19.0471498966 2.3437708348 2.5953246018 1
10.3341276646 19.0471498966 3.4732791727 3.5906803713 1
13.5761916637 19.0471498966 4.3173499548 3.4969169047 1
16.8182556629 19.0471498966 3.3610613906 2.0256406465 1
20.0603196621 19.0471498966 1.8304371722 0.562090712 1
23.3023836613 19.0471498966 0.9892844963 -0.306601091 1
26.5444476604 19.0471498966 0 -0 0
29.7865116596 19.0471498966 0 -0 0
33.0285756588 19.0471498966 0 -0 0
36.270639658 19.0471498966 0 -0 0
39.5127036572 19.0471498966 0 -0 0
42.7547676563 19.0471498966 0 -0 0
-35.0547683239 15.8050858974 0 -0 0
-31.8127043247 15.8050858974 0 -0 0
-28.5706403255 15.8050858974 0 -0 0
-25.3285763264 15.8050858974 0 -0 0
-22.0865123272 15.8050858974 2.4336661387 0.0930882894 1
-18.844448328 15.8050858974 2.1886996617 -1.0565832353 1
-15.6023843288 15.8050858974 1.8253473573 -1.3551250942 1
-12.3603203297 15.8050858974 1.3959334406 -0.2849483174 1
-9.1182563305 15.8050858974 1.3284404782 1.5165830686 1
-5.8761923313 15.8050858974 1.4722898732 2.7188343633 1
-2.6341283321 15.8050858974 1.9513928171 2.5734517133 1
0.607935667 15.8050858974 2.6835933509 1.4551085398 1
3.8499996662 15.8050858974 2.9426793314 0.6403676763 1
7.0920636654 15.8050858974 3.192517773 1.4006056715 1
10.3341276646 15.8050858974 3.8515807135 2.9688207559 1
13.5761916637 15.8050858974 4.2061992313 3.4647058676 1
16.8182556629 15.8050858974 3.3473668688 2.174958792 1
20.0603196621 15.8050858974 1.8579516722 0.6965839827 1
23.3023836613 15.8050858974 0.9975091353 -0.1304942167 1
26.5444476604 15.8050858974 0.9675335164 -0.5113872017 1
29.7865116596 15.8050858974 0 -0 0
33.0285756588 15.8050858974 0 -0 0
36.270639658 15.8050858974 0 -0 0
39.5127036572 15.8050858974 0 -0 0
42.7547676563 15.8050858974 0 -0 0
-35.0547683239 12.5630218983 0 -0 0
-31.8127043247 12.5630218983 0 -0 0
-28.5706403255 12.5630218983 0 -0 0
-25.3285763264 12.5630218983 0 -0 0
-22.0865123272 12.5630218983 3.5003052835 0.9602814285 1
-18.844448328 12.5630218983 3.3133927997 -0.6048626923 1
-15.6023843288 12.5630218983 2.6433860175 -1.1212054962 1
-12.3603203297 12.5630218983 1.1550057228 -0.0068085624 1
-9.1182563305 12.5630218983 -0.0484135777 1.6347098307 1
-5.8761923313 12.5630218983 -0.2440604284 2.290936189 1
-2.6341283321 12.5630218983 0.8611875757 1.6291745023 1
0.607935667 12.5630218983 2.3313968508 0.2566533761 1
3.8499996662 12.5630218983 3.1914486009 -0.6447929196 1
7.0920636654 12.5630218983 3.2552420345 0.3116973033 1
10.3341276646 12.5630218983 3.422894625 2.0196007751 1
13.5761916637 12.5630218983 3.2767305524 2.5698767351 1
16.8182556629 12.5630218983 2.7607763462 1.5192090471 1
20.0603196621 12.5630218983 1.9514657358 0.4487896798 1
23.3023836613 12.5630218983 1.1255534427 -0.0660544318 1
26.5444476604 12.5630218983 0.8639772061 -0.4979354402 1
29.7865116596 12.5630218983 0.5649909659 -1.3962047344 1
33.0285756588 12.5630218983 0 -0 0
36.270639658 12.5630218983 0 -0 0
39.5127036572 12.5630218983 0 -0 0
42.7547676563 12.5630218983 0 -0 0
-35.0547683239 9.3209578991 0 -0 0
-31.8127043247 9.3209578991 0 -0 0
-28.5706403255 9.3209578991 0 -0 0
-25.3285763264 9.3209578991 3.404223516 4.4624901464 1
-22.0865123272 9.3209578991 3.9499321695 2.7183491445 1
-18.844448328 9.3209578991 3.7646948529 0.6417225598 1
-15.6023843288 9.3209578991 2.7826794287 -0.7342876237 1
-12.3603203297 9.3209578991 0.8558948566 0.3119291937 1
-9.1182563305 9.3209578991 -0.4733936976 1.5763141916 1
-5.8761923313 9.3209578991 -0.5761683966 1.5159174402 1
-2.6341283321 9.3209578991 0.4230670093 0.4004405146 1
0.607935667 9.3209578991 1.5403045891 -1.0337505527 1
3.8499996662 9.3209578991 2.7770258905 -1.844055303 1
7.0920636654 9.3209578991 2.9659628869 -1.1257724252 1
10.3341276646 9.3209578991 2.9842629107 0.3611286241 1
13.5761916637 9.3209578991 2.4154357123 0.9980308889 1
16.8182556629 9.3209578991 2.2359308914 0.8454705794 1
20.0603196621 9.3209578991 1.9523160009 0.5516008759 1
23.3023836613 9.3209578991 1.2395898893 0.25285081 1
26.5444476604 9.3209578991 0.7408063731 -0.512817193 1
29.7865116596 9.3209578991 0.3871132282 -1.7276493011 1
33.0285756588 9.3209578991 0 -0 0
36.270639658 9.3209578991 0 -0 0
39.5127036572 9.3209578991 0 -0 0
42.7547676563 9.3209578991 0 -0 0
-35.0547683239 6.0788938999 0 -0 0
-31.8127043247 6.0788938999 0 -0 0
-28.5706403255 6.0788938999 0 -0 0
-25.3285763264 6.0788938999 2.6015959107 5.4241176266 1
-22.0865123272 6.0788938999 2.9592510464 4.1777838911 1
-18.844448328 6.0788938999 2.7959014133 1.8352091945 1
-15.6023843288 6.0788938999 2.1979481062 -0.0315607228 1
-12.3603203297 6.0788938999 1.1142831275 0.6305295415 1
-9.1182563305 6.0788938999 0.4400186413 1.7008479851 1
-5.8761923313 6.0788938999 0.561153488 1.3797784038 1
-2.6341283321 6.0788938999 0.7461312488 0.1417945845 1
0.607935667 6.0788938999 1.145865373 -1.0948022135 1
3.8499996662 6.0788938999 2.3759540934 -1.7376133452 1
7.0920636654 6.0788938999 2.7991542208 -1.4196549612 1
10.3341276646 6.0788938999 2.8780679403 -0.4314773419 1
13.5761916637 6.0788938999 2.3257691285 0.2246202764 1
16.8182556629 6.0788938999 2.2493397773 0.6870485435 1
20.0603196621 6.0788938999 2.1461077513 0.9203239509 1
23.3023836613 6.0788938999 1.5501363832 0.7004037594 1
26.5444476604 6.0788938999 1.0027030443 -0.3104777269 1
29.7865116596 6.0788938999 0.5173390573 -1.807687146 1
33.0285756588 6.0788938999 0.2744316462 -2.6896804761 1
36.270639658 6.0788938999 0 -0 0
39.5127036572 6.0788938999 0 -0 0
42.7547676563 6.0788938999 0 -0 0
-35.0547683239 2.8368299007 0 -0 0
-31.8127043247 2.8368299007 0 -0 0
-28.5706403255 2.8368299007 1.9274733744 4.1450677072 1
-25.3285763264 2.8368299007 1.0669533142 5.0174351668 1
-22.0865123272 2.8368299007 0.9392080036 4.1855202165 1
-18.844448328 2.8368299007 0.9075120019 2.3915144579 1
-15.6023843288 2.8368299007 1.1363793011 0.823846792 1
-12.3603203297 2.8368299007 1.4710123619 1.1914683119 1
-9.1182563305 2.8368299007 1.6529174607 2.0660582817 1
-5.8761923313 2.8368299007 1.6878642317 1.9061525846 1
-2.6341283321 2.8368299007 1.1065040775 0.8469306138 1
0.607935667 2.8368299007 1.1958999714 -0.2014033177 1
3.8499996662 2.8368299007 2.4202581586 -0.586487523 1
7.0920636654 2.8368299007 2.9939615489 -0.5236795485 1
10.3341276646 2.8368299007 3.1586231144 -0.2695963108 1
13.5761916637 2.8368299007 2.7724783612 0.1198852272 1
16.8182556629 2.8368299007 2.5991293569 0.8929888037 1
20.0603196621 2.8368299007 2.3428903756 1.5093450964 1
23.3023836613 2.8368299007 2.0362131012 1.2498617619 1
26.5444476604 2.8368299007 1.7283505584 0.0045218644 1
29.7865116596 2.8368299007 1.049849806 -1.7827954541 1
33.0285756588 2.8368299007 0.5051869997 -3.0036031203 1
36.270639658 2.8368299007 0 -0 0
39.5127036572 2.8368299007 0 -0 0
42.7547676563 2.8368299007 0 -0 0
-35.0547683239 -0.4052340984 0 -0 0
-31.8127043247 -0.4052340984 0 -0 0
-28.5706403255 -0.4052340984 1.26139001 3.6745157247 1
-25.3285763264 -0.4052340984 0.0505757422 3.7425535391 1
-22.0865123272 -0.4052340984 -0.5191383599 3.5310950856 1
-18.844448328 -0.4052340984 -0.3923135911 2.7288014268 1
-15.6023843288 -0.4052340984 0.7477738064 2.1171300465 1
-12.3603203297 -0.4052340984 2.091564121 2.1941670534 1
-9.1182563305 -0.4052340984 2.2655872079 2.6487605625 1
-5.8761923313 -0.4052340984 1.7886550669 2.4764872221 1
-2.6341283321 -0.4052340984 1.0343388843 1.5283622294 1
0.607935667 -0.4052340984 1.5817657315 0.7815782602 1
3.8499996662 -0.4052340984 2.9100238375 0.6522392309 1
7.0920636654 -0.4052340984 3.5974027797 0.5206735775 1
10.3341276646 -0.4052340984 3.6441438086 0.0964320848 1
13.5761916637 -0.4052340984 3.2003398496 0.0093572105 1
16.8182556629 -0.4052340984 2.8562723487 0.6076647023 1
20.0603196621 -0.4052340984 2.6169012863 1.2426108818 1
23.3023836613 -0.4052340984 2.705824945 1.1067380816 1
26.5444476604 -0.4052340984 2.5439629739 -0.0217268506 1
29.7865116596 -0.4052340984 1.6759756174 -1.6684692199 1
33.0285756588 -0.4052340984 0.8116761651 -3.0340151945 1
36.270639658 -0.4052340984 0 -0 0
39.5127036572 -0.4052340984 0 -0 0
42.7547676563 -0.4052340984 0 -0 0
-35.0547683239 -3.6472980976 0 -0 0
-31.8127043247 -3.6472980976 0 -0 0
-28.5706403255 -3.6472980976 1.1185387556 4.2297237355 1
-25.3285763264 -3.6472980976 0.1839879236 4.2687214944 1
-22.0865123272 -3.6472980976 -0.3514493478 4.0720397183 1
-18.844448328 -3.6472980976 -0.0755211465 3.513155881 1
-15.6023843288 -3.6472980976 1.1474113096 2.7851613815 1
-12.3603203297 -3.6472980976 2.423944704 2.2290901222 1
-9.1182563305 -3.6472980976 2.1973813635 1.9530374883 1
-5.8761923313 -3.6472980976 1.3399963539 1.4851190328 1
-2.6341283321 -3.6472980976 0.7947337423 0.8591478151 1
0.607935667 -3.6472980976 1.5635194531 0.7769662665 1
3.8499996662 -3.6472980976 2.9948848836 1.1637359616 1
7.0920636654 -3.6472980976 3.7465385529 0.9703156738 1
10.3341276646 -3.6472980976 3.8890138155 -0.1932549564 1
13.5761916637 -3.6472980976 3.5468723946 -1.0289581495 1
16.8182556629 -3.6472980976 3.1661897491 -0.9084288449 1
20.0603196621 -3.6472980976 2.9665471422 -0.214361274 1
23.3023836613 -3.6472980976 3.043921266 0.0567981368 1
26.5444476604 -3.6472980976 2.8598708783 -0.4730029108 1
29.7865116596 -3.6472980976 1.9243045064 -1.6035806473 1
33.0285756588 -3.6472980976 0.9569297354 -2.7155960489 1
36.270639658 -3.6472980976 0 -0 0
39.5127036572 -3.6472980976 0 -0 0
42.7547676563 -3.6472980976 0 -0 0
-35.0547683239 -6.8893620968 0 -0 0
-31.8127043247 -6.8893620968 0 -0 0
-28.5706403255 -6.8893620968 1.5534557686 5.2940989287 1
-25.3285763264 -6.8893620968 1.3362430796 6.1794495378 1
-22.0865123272 -6.8893620968 0.4187705814 6.0023733772 1
-18.844448328 -6.8893620968 -0.1786887883 4.4819384507 1
-15.6023843288 -6.8893620968 0.3883220856 2.3246333784 1
-12.3603203297 -6.8893620968 1.6560286579 1.073869795 1
-9.1182563305 -6.8893620968 1.6946770714 0.6429636117 1
-5.8761923313 -6.8893620968 0.8346897856 0.4739390403 1
-2.6341283321 -6.8893620968 0.4889303599 0.4100789911 1
0.607935667 -6.8893620968 1.3225959625 1.0251362592 1
3.8499996662 -6.8893620968 2.6099811067 1.7767706798 1
7.0920636654 -6.8893620968 3.3812165382 1.2102986945 1
10.3341276646 -6.8893620968 3.8835387243 -0.7416909839 1
13.5761916637 -6.8893620968 4.0705731921 -2.6367644573 1
16.8182556629 -6.8893620968 3.9412042708 -3.1125457512 1
20.0603196621 -6.8893620968 3.5412125156 -2.3367775856 1
23.3023836613 -6.8893620968 3.1443147471 -1.2833657092 1
26.5444476604 -6.8893620968 2.7134942395 -0.8049047668 1
29.7865116596 -6.8893620968 1.8884538758 -1.2642346691 1
33.0285756588 -6.8893620968 1.0835562801 -2.0012205861 1
36.270639658 -6.8893620968 0 -0 0
39.5127036572 -6.8893620968 0 -0 0
42.7547676563 -6.8893620968 0 -0 0
-35.0547683239 -10.131426096 0 -0 0
-31.8127043247 -10.131426096 0 -0 0
-28.5706403255 -10.131426096 1.5274142865 4.8185060458 1
-25.3285763264 -10.131426096 1.7435652009 6.2797252621 1
-22.0865123272 -10.131426096 0.6252862275 6.7432894302 1
-18.844448328 -10.131426096 -0.9085082553 5.0245815 1
-15.6023843288 -10.131426096 -0.8851753325 2.3196198036 1
-12.3603203297 -10.131426096 0.5102878732 0.8107878555 1
-9.1182563305 -10.131426096 1.3859600364 0.749062112 1
-5.8761923313 -10.131426096 0.702894393 1.4097609673 1
-2.6341283321 -10.131426096 0.4633000077 1.9836663559 1
0.607935667 -10.131426096 1.000658981 2.4689337218 1
3.8499996662 -10.131426096 1.8426296899 2.5092826655 1
7.0920636654 -10.131426096 2.4866131064 1.217652612 1
10.3341276646 -10.131426096 3.5270348886 -1.3826255539 1
13.5761916637 -10.131426096 4.3983869216 -3.9311535697 1
16.8182556629 -10.131426096 4.7316222987 -4.6424924146 1
20.0603196621 -10.131426096 4.0743072932 -3.3367279871 1
23.3023836613 -10.131426096 3.2195565654 -1.2430939869 1
26.5444476604 -10.131426096 2.499590368 -0.1258306478 1
29.7865116596 -10.131426096 1.8240763378 -0.5643870845 1
33.0285756588 -10.131426096 1.3433116631 -1.5045948138 1
36.270639658 -10.131426096 0 -0 0
39.5127036572 -10.131426096 0 -0 0
42.7547676563 -10.131426096 0 -0 0
-35.0547683239 -13.3734900951 0 -0 0
-31.8127043247 -13.3734900951 0 -0 0
-28.5706403255 -13.3734900951 0 -0 0
-25.3285763264 -13.3734900951 0.509008739 5.2229170055 1
-22.0865123272 -13.3734900951 -0.4733507466 6.331071491 1
-18.844448328 -13.3734900951 -1.6102195691 5.2976926273 1
-15.6023843288 -13.3734900951 -1.3280754319 2.922314033 1
-12.3603203297 -13.3734900951 0.2082784515 1.4721653226 1
-9.1182563305 -13.3734900951 1.4966232766 1.7999961117 1
-5.8761923313 -13.3734900951 1.0324966684 3.0392339381 1
-2.6341283321 -13.3734900951 0.800835889 3.7204400039 1
0.607935667 -13.3734900951 0.9206954135 3.3565525097 1
3.8499996662 -13.3734900951 1.187521871 2.2269860482 1
7.0920636654 -13.3734900951 1.5978606821 0.4755257766 1
10.3341276646 -13.3734900951 2.8781923399 -1.8054413108 1
13.5761916637 -13.3734900951 4.0784016095 -3.817415516 1
16.8182556629 -13.3734900951 4.6548279012 -4.0858459582 1
20.0603196621 -13.3734900951 3.8950387409 -2.3113576484 1
23.3023836613 -13.3734900951 2.9544888372 0.2298678742 1
26.5444476604 -13.3734900951 2.2667122391 1.2218330569 1
29.7865116596 -13.3734900951 1.7981689174 0.2302135775 1
33.0285756588 -13.3734900951 1.6322817744 -1.2788062533 1
36.270639658 -13.3734900951 0 -0 0
39.5127036572 -13.3734900951 0 -0 0
42.7547676563 -13.3734900951 0 -0 0
-35.0547683239 -16.6155540943 0 -0 0
-31.8127043247 -16.6155540943 0 -0 0
-28.5706403255 -16.6155540943 0 -0 0
-25.3285763264 -16.6155540943 -1.6795865266 3.5895921769 1
-22.0865123272 -16.6155540943 -1.9336166605 5.1915960897 1
-18.844448328 -16.6155540943 -1.9661521329 5.2241018209 1
-15.6023843288 -16.6155540943 -0.6675590242 3.4930070741 1
-12.3603203297 -16.6155540943 1.152180086 1.7989011236 1
-9.1182563305 -16.6155540943 2.3829023534 1.8554115958 1
-5.8761923313 -16.6155540943 2.1047411164 2.8449592334 1
-2.6341283321 -16.6155540943 1.5518669565 3.2942554943 1
0.607935667 -16.6155540943 1.0872271245 2.4503522893 1
3.8499996662 -16.6155540943 0.7914572325 0.979687914 1
7.0920636654 -16.6155540943 0.7332806513 -0.392487509 1
10.3341276646 -16.6155540943 1.6127102782 -1.8442871935 1
13.5761916637 -16.6155540943 2.6586373457 -2.7183790367 1
16.8182556629 -16.6155540943 3.1449651274 -2.2520172367 1
20.0603196621 -16.6155540943 2.7361853873 -0.3317279381 1
23.3023836613 -16.6155540943 2.0839997509 1.6544398458 1
26.5444476604 -16.6155540943 1.837764217 1.8334055515 1
29.7865116596 -16.6155540943 1.7268834284 0.4570439468 1
33.0285756588 -16.6155540943 0 -0 0
36.270639658 -16.6155540943 0 -0 0
39.5127036572 -16.6155540943 0 -0 0
42.7547676563 -16.6155540943 0 -0 0
-35.0547683239 -19.8576180935 0 -0 0
-31.8127043247 -19.8576180935 0 -0 0
-28.5706403255 -19.8576180935 0 -0 0
-25.3285763264 -19.8576180935 0 -0 0
-22.0865123272 -19.8576180935 -2.6722548726 4.8024110952 1
-18.844448328 -19.8576180935 -1.264204626 4.7350381542 1
-15.6023843288 -19.8576180935 0.4252205638 3.1270881226 1
-12.3603203297 -19.8576180935 2.0887083656 1.3360735399 1
-9.1182563305 -19.8576180935 2.7729207043 0.8708883275 1
-5.8761923313 -19.8576180935 2.7963051081 1.0993154726 1
-2.6341283321 -19.8576180935 2.1662006991 1.2458101703 1
0.607935667 -19.8576180935 1.103523847 0.5927185229 1
3.8499996662 -19.8576180935 0.2472510738 -0.3701251369 1
7.0920636654 -19.8576180935 -0.3215226056 -1.1632742942 1
10.3341276646 -19.8576180935 0.2167832538 -1.9624805336 1
13.5761916637 -19.8576180935 1.3289321887 -1.7434513692 1
16.8182556629 -19.8576180935 1.7707564733 -0.4456978067 1
20.0603196621 -19.8576180935 1.7030295069 1.2661713924 1
23.3023836613 -19.8576180935 1.3552301695 2.105247773 1
26.5444476604 -19.8576180935 1.5926275963 1.6178660671 1
29.7865116596 -19.8576180935 1.756672297 0.3970685915 1
33.0285756588 -19.8576180935 0 -0 0
36.270639658 -19.8576180935 0 -0 0
39.5127036572 -19.8576180935 0 -0 0
42.7547676563 -19.8576180935 0 -0 0
-35.0547683239 -23.0996820927 0 -0 0
-31.8127043247 -23.0996820927 0 -0 0
-28.5706403255 -23.0996820927 0 -0 0
-25.3285763264 -23.0996820927 0 -0 0
-22.0865123272 -23.0996820927 -2.1518633455 4.0213767812 1
-18.844448328 -23.0996820927 -0.5508244353 2.938641176 1
-15.6023843288 -23.0996820927 0.7520917098 1.6762331729 1
-12.3603203297 -23.0996820927 1.7194807475 1.0106152501 1
-9.1182563305 -23.0996820927 1.7572811605 0.9633610729 1
-5.8761923313 -23.0996820927 1.9412303979 0.7009812966 1
-2.6341283321 -23.0996820927 1.9438240688 0.3314895936 1
0.607935667 -23.0996820927 1.1914382688 -0.1692027542 1
3.8499996662 -23.0996820927 0.0381481307 -0.7285505233 1
7.0920636654 -23.0996820927 -0.9425167456 -1.4666127836 1
10.3341276646 -23.0996820927 -0.6169081271 -2.0041693393 1
13.5761916637 -23.0996820927 0.714802407 -1.352741725 1
16.8182556629 -23.0996820927 1.2649905022 0.2653256611 1
20.0603196621 -23.0996820927 1.372100202 1.6679453527 1
23.3023836613 -23.0996820927 1.4571825707 1.8857398815 1
26.5444476604 -23.0996820927 2.0213447848 1.3282390838 1
29.7865116596 -23.0996820927 0 -0 0
33.0285756588 -23.0996820927 0 -0 0
36.270639658 -23.0996820927 0 -0 0
39.5127036572 -23.0996820927 0 -0 0
42.7547676563 -23.0996820927 0 -0 0
-35.0547683239 -26.3417460918 0 -0 0
-31.8127043247 -26.3417460918 0 -0 0
-28.5706403255 -26.3417460918 0 -0 0
-25.3285763264 -26.3417460918 0 -0 0
-22.0865123272 -26.3417460918 0 -0 0
-18.844448328 -26.3417460918 0.7953042593 0.7729739307 1
-15.6023843288 -26.3417460918 1.1600879892 0.5885044116 1
-12.3603203297 -26.3417460918 0.8261484862 1.8126019862 1
-9.1182563305 -26.3417460918 0.0724958372 2.927413208 1
-5.8761923313 -26.3417460918 0.4079168312 2.4022156903 1
-2.6341283321 -26.3417460918 1.2577417356 1.1915842571 1
0.607935667 -26.3417460918 1.2700040771 0.5253242574 1
3.8499996662 -26.3417460918 0.0879745268 0.0016897945 1
7.0920636654 -26.3417460918 -1.2594294333 -0.8702097912 1
10.3341276646 -26.3417460918 -1.2760202461 -1.3871967856 1
13.5761916637 -26.3417460918 -0.1425267624 -0.8280981175 1
16.8182556629 -26.3417460918 0.635534511 0.589940102 1
20.0603196621 -26.3417460918 1.0876350464 1.6290558396 1
23.3023836613 -26.3417460918 1.7225394071 1.859883489 1
26.5444476604 -26.3417460918 0 -0 0
29.7865116596 -26.3417460918 0 -0 0
33.0285756588 -26.3417460918 0 -0 0
36.270639658 -26.3417460918 0 -0 0
39.5127036572 -26.3417460918 0 -0 0
42.7547676563 -26.3417460918 0 -0 0
-35.0547683239 -29.583810091 0 -0 0
-31.8127043247 -29.583810091 0 -0 0
-28.5706403255 -29.583810091 0 -0 0
-25.3285763264 -29.583810091 0 -0 0
-22.0865123272 -29.583810091 0 -0 0
-18.844448328 -29.583810091 0 -0 0
-15.6023843288 -29.583810091 0.7852119659 0.0310862064 1
-12.3603203297 -29.583810091 -0.3654136537 2.5604912094 1
-9.1182563305 -29.583810091 -1.4467668232 4.328413969 1
-5.8761923313 -29.583810091 -0.9322813323 4.0168497838 1
-2.6341283321 -29.583810091 0.3620476184 2.481612515 1
0.607935667 -29.583810091 0.994275501 1.4980962945 1
3.8499996662 -29.583810091 -0.1425353489 0.6795056866 1
7.0920636654 -29.583810091 -1.7241809079 -0.4074015316 1
10.3341276646 -29.583810091 -2.1677401439 -0.8074813025 1
13.5761916637 -29.583810091 -1.6101637101 -0.1620399086 1
16.8182556629 -29.583810091 -0.7522884997 1.0389209103 1
20.0603196621 -29.583810091 -0.0002075339 1.747476692 1
23.3023836613 -29.583810091 0 -0 0
26.5444476604 -29.583810091 0 -0 0
29.7865116596 -29.583810091 0 -0 0
33.0285756588 -29.583810091 0 -0 0
36.270639658 -29.583810091 0 -0 0
39.5127036572 -29.583810091 0 -0 0
42.7547676563 -29.583810091 0 -0 0
-35.0547683239 -32.8258740902 0 -0 0
-31.8127043247 -32.8258740902 0 -0 0
-28.5706403255 -32.8258740902 0 -0 0
-25.3285763264 -32.8258740902 0 -0 0
-22.0865123272 -32.8258740902 0 -0 0
-18.844448328 -32.8258740902 0 -0 0
-15.6023843288 -32.8258740902 0 -0 0
-12.3603203297 -32.8258740902 0 -0 0
-9.1182563305 -32.8258740902 -1.8564464977 4.4479094285 1
-5.8761923313 -32.8258740902 -1.3112171751 4.3106985025 1
-2.6341283321 -32.8258740902 -0.3388016545 3.0246076272 1
0.607935667 -32.8258740902 -0.0118457387 1.91077107 1
3.8499996662 -32.8258740902 -1.2100131341 0.4654857944 1
7.0920636654 -32.8258740902 -2.6593598899 -0.4872684781 1
10.3341276646 -32.8258740902 -3.2141940981 -0.6310219691 1
13.5761916637 -32.8258740902 -3.033599724 0.3332688171 1
16.8182556629 -32.8258740902 0 -0 0
20.0603196621 -32.8258740902 0 -0 0
23.3023836613 -32.8258740902 0 -0 0
26.5444476604 -32.8258740902 0 -0 0
29.7865116596 -32.8258740902 0 -0 0
33.0285756588 -32.8258740902 0 -0 0
36.270639658 -32.8258740902 0 -0 0
39.5127036572 -32.8258740902 0 -0 0
42.7547676563 -32.8258740902 0 -0 0
-35.0547683239 -36.0679380894 0 -0 0
-31.8127043247 -36.0679380894 0 -0 0
-28.5706403255 -36.0679380894 0 -0 0
-25.3285763264 -36.0679380894 0 -0 0
-22.0865123272 -36.0679380894 0 -0 0
-18.844448328 -36.0679380894 0 -0 0
-15.6023843288 -36.0679380894 0 -0 0
-12.3603203297 -36.0679380894 0 -0 0
-9.1182563305 -36.0679380894 0 -0 0
-5.8761923313 -36.0679380894 0 -0 0
-2.6341283321 -36.0679380894 0 -0 0
0.607935667 -36.0679380894 0 -0 0
3.8499996662 -36.0679380894 0 -0 0
7.0920636654 -36.0679380894 0 -0 0
10.3341276646 -36.0679380894 0 -0 0
13.5761916637 -36.0679380894 0 -0 0
16.8182556629 -36.0679380894 0 -0 0
20.0603196621 -36.0679380894 0 -0 0
23.3023836613 -36.0679380894 0 -0 0
26.5444476604 -36.0679380894 0 -0 0
29.7865116596 -36.0679380894 0 -0 0
33.0285756588 -36.0679380894 0 -0 0
36.270639658 -36.0679380894 0 -0 0
39.5127036572 -36.0679380894 0 -0 0
42.7547676563 -36.0679380894 0 -0 0
-35.0547683239 -39.3100020885 0 -0 0
-31.8127043247 -39.3100020885 0 -0 0
-28.5706403255 -39.3100020885 0 -0 0
-25.3285763264 -39.3100020885 0 -0 0
-22.0865123272 -39.3100020885 0 -0 0
-18.844448328 -39.3100020885 0 -0 0
-15.6023843288 -39.3100020885 0 -0 0
-12.3603203297 -39.3100020885 0 -0 0
-9.1182563305 -39.3100020885 0 -0 0
-5.8761923313 -39.3100020885 0 -0 0
-2.6341283321 -39.3100020885 0 -0 0
0.607935667 -39.3100020885 0 -0 0
3.8499996662 -39.3100020885 0 -0 0
7.0920636654 -39.3100020885 0 -0 0
10.3341276646 -39.3100020885 0 -0 0
13.5761916637 -39.3100020885 0 -0 0
16.8182556629 -39.3100020885 0 -0 0
20.0603196621 -39.3100020885 0 -0 0
23.3023836613 -39.3100020885 0 -0 0
26.5444476604 -39.3100020885 0 -0 0
29.7865116596 -39.3100020885 0 -0 0
33.0285756588 -39.3100020885 0 -0 0
36.270639658 -39.3100020885 0 -0 0
39.5127036572 -39.3100020885 0 -0 0
42.7547676563 -39.3100020885 0 -0 0
-35.0547683239 -42.5520660877 0 -0 0
-31.8127043247 -42.5520660877 0 -0 0
-28.5706403255 -42.5520660877 0 -0 0
-25.3285763264 -42.5520660877 0 -0 0
-22.0865123272 -42.5520660877 0 -0 0
-18.844448328 -42.5520660877 0 -0 0
-15.6023843288 -42.5520660877 0 -0 0
-12.3603203297 -42.5520660877 0 -0 0
-9.1182563305 -42.5520660877 0 -0 0
-5.8761923313 -42.5520660877 0 -0 0
-2.6341283321 -42.5520660877 0 -0 0
0.607935667 -42.5520660877 0 -0 0
3.8499996662 -42.5520660877 0 -0 0
7.0920636654 -42.5520660877 0 -0 0
10.3341276646 -42.5520660877 0 -0 0
13.5761916637 -42.5520660877 0 -0 0
16.8182556629 -42.5520660877 0 -0 0
20.0603196621 -42.5520660877 0 -0 0
23.3023836613 -42.5520660877 0 -0 0
26.5444476604 -42.5520660877 0 -0 0
29.7865116596 -42.5520660877 0 -0 0
33.0285756588 -42.5520660877 0 -0 0
36.270639658 -42.5520660877 0 -0 0
39.5127036572 -42.5520660877 0 -0 0
42.7547676563 -42.5520660877 0 -0 0
