TITLE = "B00080"
VARIABLES = "x", "y", "Vx", "Vy", "isValid"
ZONE T="Frame 0", I=25, J=25, F=POINT
-35.0547683239 35.2574698925 0 -0 0
-31.8127043247 35.2574698925 0 -0 0
-28.5706403255 35.2574698925 0 -0 0
-25.3285763264 35.2574698925 0 -0 0
-22.0865123272 35.2574698925 0 -0 0
-18.844448328 35.2574698925 0 -0 0
-15.6023843288 35.2574698925 0 -0 0
-12.3603203297 35.2574698925 0 -0 0
-9.1182563305 35.2574698925 0 -0 0
-5.8761923313 35.2574698925 0 -0 0
-2.6341283321 35.2574698925 0 -0 0
0.607935667 35.2574698925 0 -0 0
3.8499996662 35.2574698925 0 -0 0
7.0920636654 35.2574698925 0 -0 0
10.3341276646 35.2574698925 0 -0 0
13.5761916637 35.2574698925 0 -0 0
16.8182556629 35.2574698925 0 -0 0
20.0603196621 35.2574698925 0 -0 0
23.3023836613 35.2574698925 0 -0 0
26.5444476604 35.2574698925 0 -0 0
29.7865116596 35.2574698925 0 -0 0
33.0285756588 35.2574698925 0 -0 0
36.270639658 35.2574698925 0 -0 0
39.5127036572 35.2574698925 0 -0 0
42.7547676563 35.2574698925 0 -0 0
-35.0547683239 32.0154058933 0 -0 0
-31.8127043247 32.0154058933 0 -0 0
-28.5706403255 32.0154058933 0 -0 0
-25.3285763264 32.0154058933 0 -0 0
-22.0865123272 32.0154058933 0 -0 0
-18.844448328 32.0154058933 0 -0 0
-15.6023843288 32.0154058933 0 -0 0
-12.3603203297 32.0154058933 0 -0 0
-9.1182563305 32.0154058933 0 -0 0
-5.8761923313 32.0154058933 0 -0 0
-2.6341283321 32.0154058933 0 -0 0
0.607935667 32.0154058933 0 -0 0
3.8499996662 32.0154058933 0 -0 0
7.0920636654 32.0154058933 0 -0 0
10.3341276646 32.0154058933 0 -0 0
13.5761916637 32.0154058933 0 -0 0
16.8182556629 32.0154058933 0 -0 0
20.0603196621 32.0154058933 0 -0 0
23.3023836613 32.0154058933 0 -0 0
26.5444476604 32.0154058933 0 -0 0
29.7865116596 32.0154058933 0 -0 0
33.0285756588 32.0154058933 0 -0 0
36.270639658 32.0154058933 0 -0 0
39.5127036572 32.0154058933 0 -0 0
42.7547676563 32.0154058933 0 -0 0
-35.0547683239 28.7733418941 0 -0 0
-31.8127043247 28.7733418941 0 -0 0
-28.5706403255 28.7733418941 0 -0 0
-25.3285763264 28.7733418941 0 -0 0
-22.0865123272 28.7733418941 0 -0 0
-18.844448328 28.7733418941 0 -0 0
-15.6023843288 28.7733418941 0 -0 0
-12.3603203297 28.7733418941 0 -0 0
-9.1182563305 28.7733418941 0 -0 0
-5.8761923313 28.7733418941 0 -0 0
-2.6341283321 28.7733418941 0 -0 0
0.607935667 28.7733418941 0 -0 0
3.8499996662 28.7733418941 0 -0 0
7.0920636654 28.7733418941 0 -0 0
10.3341276646 28.7733418941 0 -0 0
13.5761916637 28.7733418941 0 -0 0
16.8182556629 28.7733418941 0 -0 0
20.0603196621 28.7733418941 0 -0 0
23.3023836613 28.7733418941 0 -0 0
26.5444476604 28.7733418941 0 -0 0
29.7865116596 28.7733418941 0 -0 0
33.0285756588 28.7733418941 0 -0 0
36.270639658 28.7733418941 0 -0 0
39.5127036572 28.7733418941 0 -0 0
42.7547676563 28.7733418941 0 -0 0
-35.0547683239 25.531277895 0 -0 0
-31.8127043247 25.531277895 0 -0 0
-28.5706403255 25.531277895 0 -0 0
-25.3285763264 25.531277895 0 -0 0
-22.0865123272 25.531277895 0 -0 0
-18.844448328 25.531277895 0 -0 0
-15.6023843288 25.531277895 0 -0 0
-12.3603203297 25.531277895 0 -0 0
-9.1182563305 25.531277895 6.6879128964 8.009270751 1
-5.8761923313 25.531277895 9.3028277147 5.2826221616 1
-2.6341283321 25.531277895 9.4216522619 2.610581063 1
0.607935667 25.531277895 6.6127821923 0.9041430982 1
3.8499996662 25.531277895 1.6638721723 0.0956634098 1
7.0920636654 25.531277895 -1.8191335681 2.0452509421 1
10.3341276646 25.531277895 -2.0910859979 4.8172554073 1
13.5761916637 25.531277895 -0.2673779711 7.3883036724 1
16.8182556629 25.531277895 0 -0 0
20.0603196621 25.531277895 0 -0 0
23.3023836613 25.531277895 0 -0 0
26.5444476604 25.531277895 0 -0 0
29.7865116596 25.531277895 0 -0 0
33.0285756588 25.531277895 0 -0 0
36.270639658 25.531277895 0 -0 0
39.5127036572 25.531277895 0 -0 0
42.7547676563 25.531277895 0 -0 0
-35.0547683239 22.2892138958 0 -0 0
-31.8127043247 22.2892138958 0 -0 0
-28.5706403255 22.2892138958 0 -0 0
-25.3285763264 22.2892138958 0 -0 0
-22.0865123272 22.2892138958 0 -0 0
-18.844448328 22.2892138958 0 -0 0
-15.6023843288 22.2892138958 -0.4481287693 10.9335069387 1
-12.3603203297 22.2892138958 1.9631451052 10.9535219858 1
-9.1182563305 22.2892138958 4.9921853732 8.7036299589 1
-5.8761923313 22.2892138958 7.120409779 4.9439458125 1
-2.6341283321 22.2892138958 7.4680993608 1.5013555937 1
0.607935667 22.2892138958 5.9723417483 0.681676414 1
3.8499996662 22.2892138958 2.8424190061 1.8770246643 1
7.0920636654 22.2892138958 -0.0370037093 4.055285631 1
10.3341276646 22.2892138958 -0.3185745695 4.4806693938 1
13.5761916637 22.2892138958 2.2339555951 3.8985104554 1
16.8182556629 22.2892138958 4.2624767562 3.2839671659 1
20.0603196621 22.2892138958 4.7598890841 2.844217969 1
23.3023836613 22.2892138958 0 -0 0
26.5444476604 22.2892138958 0 -0 0
29.7865116596 22.2892138958 0 -0 0
33.0285756588 22.2892138958 0 -0 0
36.270639658 22.2892138958 0 -0 0
39.5127036572 22.2892138958 0 -0 0
42.7547676563 22.2892138958 0 -0 0
-35.0547683239 19.0471498966 0 -0 0
-31.8127043247 19.0471498966 0 -0 0
-28.5706403255 19.0471498966 0 -0 0
-25.3285763264 19.0471498966 0 -0 0
-22.0865123272 19.0471498966 0 -0 0
-18.844448328 19.0471498966 0.6168552497 7.6587266214 1
-15.6023843288 19.0471498966 -0.5650391255 9.3938845846 1
-12.3603203297 19.0471498966 0.4252678176 9.5717928939 1
-9.1182563305 19.0471498966 2.8283380001 7.6499854373 1
-5.8761923313 19.0471498966 4.8772751856 3.7062732468 1
-2.6341283321 19.0471498966 6.0275123585 -0.3544596214 1
0.607935667 19.0471498966 6.1234932778 -0.9870074857 1
3.8499996662 19.0471498966 4.416693588 1.1759552765 1
7.0920636654 19.0471498966 2.226350463 3.6767180804 1
10.3341276646 19.0471498966 1.6154715262 2.5894352478 1
13.5761916637 19.0471498966 4.4444537168 -0.3909136806 1
16.8182556629 19.0471498966 6.2626788962 -2.2665706289 1
20.0603196621 19.0471498966 5.9029237628 -1.8690683751 1
23.3023836613 19.0471498966 3.2856776601 -1.1525483027 1
26.5444476604 19.0471498966 0 -0 0
29.7865116596 19.0471498966 0 -0 0
33.0285756588 19.0471498966 0 -0 0
36.270639658 19.0471498966 0 -0 0
39.5127036572 19.0471498966 0 -0 0
42.7547676563 19.0471498966 0 -0 0
-35.0547683239 15.8050858974 0 -0 0
-31.8127043247 15.8050858974 0 -0 0
-28.5706403255 15.8050858974 0 -0 0
-25.3285763264 15.8050858974 0 -0 0
-22.0865123272 15.8050858974 5.3256813252 6.2527692015 1
-18.844448328 15.8050858974 2.0523467002 7.3413851023 1
-15.6023843288 15.8050858974 -0.6222480621 8.0439480399 1
-12.3603203297 15.8050858974 -1.8991572217 7.1569089783 1
-9.1182563305 15.8050858974 -1.0956181329 5.1770365077 1
-5.8761923313 15.8050858974 1.3273066908 2.1873197925 1
-2.6341283321 15.8050858974 3.744092833 -0.5644149763 1
0.607935667 15.8050858974 4.9784525049 -1.0688648254 1
3.8499996662 15.8050858974 4.4767894555 1.5132528133 1
7.0920636654 15.8050858974 3.2801702612 3.5926662354 1
10.3341276646 15.8050858974 3.0282922099 1.368463024 1
13.5761916637 15.8050858974 5.5813786248 -2.5953312445 1
16.8182556629 15.8050858974 6.900420594 -5.6720133816 1
20.0603196621 15.8050858974 5.7311279416 -5.2467606611 1
23.3023836613 15.8050858974 2.2043916724 -4.464978138 1
26.5444476604 15.8050858974 0.235050517 -3.3721389921 1
29.7865116596 15.8050858974 0 -0 0
33.0285756588 15.8050858974 0 -0 0
36.270639658 15.8050858974 0 -0 0
39.5127036572 15.8050858974 0 -0 0
42.7547676563 15.8050858974 0 -0 0
-35.0547683239 12.5630218983 0 -0 0
-31.8127043247 12.5630218983 0 -0 0
-28.5706403255 12.5630218983 0 -0 0
-25.3285763264 12.5630218983 0 -0 0
-22.0865123272 12.5630218983 6.4501013579 5.7609107714 1
-18.844448328 12.5630218983 3.2564808973 7.5456624995 1
-15.6023843288 12.5630218983 -0.6855627687 7.8609496138 1
-12.3603203297 12.5630218983 -4.347227292 6.3477247301 1
-9.1182563305 12.5630218983 -4.7800336638 4.0488120218 1
-5.8761923313 12.5630218983 -2.1288297969 2.3089249119 1
-2.6341283321 12.5630218983 1.6559750635 1.9972105113 1
0.607935667 12.5630218983 3.6127549561 2.6599535054 1
3.8499996662 12.5630218983 3.36819625 4.6669333089 1
7.0920636654 12.5630218983 2.5446867258 5.5924918554 1
10.3341276646 12.5630218983 2.4928205549 3.7843816904 1
13.5761916637 12.5630218983 4.7091609278 0.6024643393 1
16.8182556629 12.5630218983 5.4719305451 -3.5292894801 1
20.0603196621 12.5630218983 4.1122298411 -5.5136490919 1
23.3023836613 12.5630218983 0.9287879535 -6.593990609 1
26.5444476604 12.5630218983 -0.6574229494 -5.8295020432 1
29.7865116596 12.5630218983 -0.5906327163 -4.9709915495 1
33.0285756588 12.5630218983 0 -0 0
36.270639658 12.5630218983 0 -0 0
39.5127036572 12.5630218983 0 -0 0
42.7547676563 12.5630218983 0 -0 0
-35.0547683239 9.3209578991 0 -0 0
-31.8127043247 9.3209578991 0 -0 0
-28.5706403255 9.3209578991 0 -0 0
-25.3285763264 9.3209578991 6.558116427 3.8760188904 1
-22.0865123272 9.3209578991 5.7083513446 4.6130939554 1
-18.844448328 9.3209578991 3.4665694458 6.4662853811 1
-15.6023843288 9.3209578991 0.1519870373 7.7478474474 1
-12.3603203297 9.3209578991 -3.6975731266 7.3663809638 1
-9.1182563305 9.3209578991 -5.0854548648 5.5765216063 1
-5.8761923313 9.3209578991 -3.3419947393 4.4444066141 1
-2.6341283321 9.3209578991 0.3739513298 4.9522594485 1
0.607935667 9.3209578991 2.434744822 5.7640286114 1
3.8499996662 9.3209578991 2.4702971352 7.2169426459 1
7.0920636654 9.3209578991 2.0998348815 8.1758828537 1
10.3341276646 9.3209578991 2.41354194 7.9497014682 1
13.5761916637 9.3209578991 4.5540026448 5.4602454388 1
16.8182556629 9.3209578991 5.0614070973 0.6462701647 1
20.0603196621 9.3209578991 3.7185226803 -3.5857333743 1
23.3023836613 9.3209578991 1.1592140972 -6.2463523571 1
26.5444476604 9.3209578991 0.0367739654 -6.8950273287 1
29.7865116596 9.3209578991 0.3581240496 -6.8155746449 1
33.0285756588 9.3209578991 0 -0 0
36.270639658 9.3209578991 0 -0 0
39.5127036572 9.3209578991 0 -0 0
42.7547676563 9.3209578991 0 -0 0
-35.0547683239 6.0788938999 0 -0 0
-31.8127043247 6.0788938999 0 -0 0
-28.5706403255 6.0788938999 0 -0 0
-25.3285763264 6.0788938999 4.5448339126 5.2477860518 1
-22.0865123272 6.0788938999 3.8080752815 4.3889138331 1
-18.844448328 6.0788938999 3.5227600118 5.5267575468 1
-15.6023843288 6.0788938999 2.5877368312 7.5768904176 1
-12.3603203297 6.0788938999 0.6184690851 8.0515038048 1
-9.1182563305 6.0788938999 -1.300585691 6.4125103409 1
-5.8761923313 6.0788938999 -2.1626041321 5.0227327169 1
-2.6341283321 6.0788938999 -0.8680240422 5.1949047562 1
0.607935667 6.0788938999 0.5859013428 5.0894121 1
3.8499996662 6.0788938999 1.7705804419 5.2599331274 1
7.0920636654 6.0788938999 2.0751599831 7.1579349729 1
10.3341276646 6.0788938999 2.5778727295 8.7756742249 1
13.5761916637 6.0788938999 4.4457442115 7.0047906345 1
16.8182556629 6.0788938999 5.619549972 1.6687956178 1
20.0603196621 6.0788938999 5.1510454496 -2.9310700122 1
23.3023836613 6.0788938999 3.6732481775 -5.2638752655 1
26.5444476604 6.0788938999 2.9533314984 -6.6783558684 1
29.7865116596 6.0788938999 2.875364665 -7.6719890661 1
33.0285756588 6.0788938999 2.6059284583 -8.5427529185 1
36.270639658 6.0788938999 0 -0 0
39.5127036572 6.0788938999 0 -0 0
42.7547676563 6.0788938999 0 -0 0
-35.0547683239 2.8368299007 0 -0 0
-31.8127043247 2.8368299007 0 -0 0
-28.5706403255 2.8368299007 4.2452610016 7.3189267508 1
-25.3285763264 2.8368299007 3.35724335 4.886646822 1
-22.0865123272 2.8368299007 3.1044682328 3.1648391682 1
-18.844448328 2.8368299007 4.5882753332 4.402297054 1
-15.6023843288 2.8368299007 6.4128859552 7.1909860091 1
-12.3603203297 2.8368299007 7.1076086998 7.5112418601 1
-9.1182563305 2.8368299007 4.5058769157 5.4546824828 1
-5.8761923313 2.8368299007 0.4251003537 3.5048549265 1
-2.6341283321 2.8368299007 -2.2821845879 2.7113685768 1
0.607935667 2.8368299007 -2.1197753493 1.0319340773 1
3.8499996662 2.8368299007 -0.4889625543 0.9773969387 1
7.0920636654 2.8368299007 0.8566463871 4.1707112314 1
10.3341276646 2.8368299007 1.9319268492 7.1129270838 1
13.5761916637 2.8368299007 4.147528826 5.6751885903 1
16.8182556629 2.8368299007 5.9149548931 0.3099839029 1
20.0603196621 2.8368299007 6.2667671737 -3.3601060501 1
23.3023836613 2.8368299007 5.7115440659 -4.6581945403 1
26.5444476604 2.8368299007 5.0466648411 -5.7917395238 1
29.7865116596 2.8368299007 4.6472549257 -7.1343298505 1
33.0285756588 2.8368299007 3.8219772366 -8.3044220419 1
36.270639658 2.8368299007 0 -0 0
39.5127036572 2.8368299007 0 -0 0
42.7547676563 2.8368299007 0 -0 0
-35.0547683239 -0.4052340984 0 -0 0
-31.8127043247 -0.4052340984 0 -0 0
-28.5706403255 -0.4052340984 3.3787001642 4.5754975034 1
-25.3285763264 -0.4052340984 3.515616396 2.28859796 1
-22.0865123272 -0.4052340984 4.6668517849 1.3668269581 1
-18.844448328 -0.4052340984 6.9809403363 3.621008506 1
-15.6023843288 -0.4052340984 8.8966522134 6.9051550246 1
-12.3603203297 -0.4052340984 9.4118271105 6.8242596681 1
-9.1182563305 -0.4052340984 6.0216269298 4.3016907047 1
-5.8761923313 -0.4052340984 0.6376172227 1.5491937242 1
-2.6341283321 -0.4052340984 -3.4483122976 -0.3428694001 1
0.607935667 -0.4052340984 -3.5956228391 -2.5781411548 1
3.8499996662 -0.4052340984 -2.0431849127 -3.2086987768 1
7.0920636654 -0.4052340984 -0.5112755591 -0.0576097535 1
10.3341276646 -0.4052340984 1.036765129 2.750996184 1
13.5761916637 -0.4052340984 3.6409510873 2.4763949792 1
16.8182556629 -0.4052340984 5.5636021663 -1.460925126 1
20.0603196621 -0.4052340984 6.0685865638 -4.0791383448 1
23.3023836613 -0.4052340984 5.927283737 -4.5568004276 1
26.5444476604 -0.4052340984 5.4196839289 -5.0092036586 1
29.7865116596 -0.4052340984 4.8784947243 -5.571662776 1
33.0285756588 -0.4052340984 4.0472404203 -6.5504875925 1
36.270639658 -0.4052340984 0 -0 0
39.5127036572 -0.4052340984 0 -0 0
42.7547676563 -0.4052340984 0 -0 0
-35.0547683239 -3.6472980976 0 -0 0
-31.8127043247 -3.6472980976 0 -0 0
-28.5706403255 -3.6472980976 2.7342795374 1.8792131307 1
-25.3285763264 -3.6472980976 4.0078812383 -0.3935847238 1
-22.0865123272 -3.6472980976 6.2535174106 -0.0543525537 1
-18.844448328 -3.6472980976 7.809236225 3.409032828 1
-15.6023843288 -3.6472980976 7.5796410976 7.0576296585 1
-12.3603203297 -3.6472980976 6.0539327763 7.3009793938 1
-9.1182563305 -3.6472980976 2.1106907075 5.1045085326 1
-5.8761923313 -3.6472980976 -2.5196360621 1.9885574938 1
-2.6341283321 -3.6472980976 -4.8431809442 -1.4422063104 1
0.607935667 -3.6472980976 -3.3596570642 -4.5458734945 1
3.8499996662 -3.6472980976 -1.813387787 -5.1248526951 1
7.0920636654 -3.6472980976 -0.8315034051 -2.7042165067 1
10.3341276646 -3.6472980976 0.6837548231 -0.5975259477 1
13.5761916637 -3.6472980976 3.90068775 -0.6702428999 1
16.8182556629 -3.6472980976 5.8299887716 -3.1033945316 1
20.0603196621 -3.6472980976 5.9471623069 -4.8037767731 1
23.3023836613 -3.6472980976 5.5963784364 -5.1348753157 1
26.5444476604 -3.6472980976 5.1374520779 -5.01741856 1
29.7865116596 -3.6472980976 4.5531224876 -4.631007495 1
33.0285756588 -3.6472980976 3.9306088686 -4.7644218183 1
36.270639658 -3.6472980976 0 -0 0
39.5127036572 -3.6472980976 0 -0 0
42.7547676563 -3.6472980976 0 -0 0
-35.0547683239 -6.8893620968 0 -0 0
-31.8127043247 -6.8893620968 0 -0 0
-28.5706403255 -6.8893620968 2.473507369 2.7832594569 1
-25.3285763264 -6.8893620968 4.3617355441 0.0045326001 1
-22.0865123272 -6.8893620968 6.8545690825 -0.0636990252 1
-18.844448328 -6.8893620968 7.0716934538 2.9765806327 1
-15.6023843288 -6.8893620968 4.3950954657 6.4890426539 1
-12.3603203297 -6.8893620968 0.3335465271 7.2112891077 1
-9.1182563305 -6.8893620968 -3.9069358095 5.6095164815 1
-5.8761923313 -6.8893620968 -6.7278385192 3.2335258533 1
-2.6341283321 -6.8893620968 -6.3331717907 -0.7292955621 1
0.607935667 -6.8893620968 -2.9452582071 -4.7412865157 1
3.8499996662 -6.8893620968 -0.4164108769 -6.1399641447 1
7.0920636654 -6.8893620968 0.8278017627 -4.4158711015 1
10.3341276646 -6.8893620968 2.0540128092 -2.5645456696 1
13.5761916637 -6.8893620968 4.7017899507 -2.470400097 1
16.8182556629 -6.8893620968 6.4657207519 -4.7477278173 1
20.0603196621 -6.8893620968 6.8479318213 -7.0514996577 1
23.3023836613 -6.8893620968 6.2736206244 -7.8732204851 1
26.5444476604 -6.8893620968 5.4473501541 -6.73915405 1
29.7865116596 -6.8893620968 4.6098088403 -4.7058006294 1
33.0285756588 -6.8893620968 4.0034031554 -3.4958570927 1
36.270639658 -6.8893620968 0 -0 0
39.5127036572 -6.8893620968 0 -0 0
42.7547676563 -6.8893620968 0 -0 0
-35.0547683239 -10.131426096 0 -0 0
-31.8127043247 -10.131426096 0 -0 0
-28.5706403255 -10.131426096 2.9128925764 4.9989699814 1
-25.3285763264 -10.131426096 4.2237223615 2.0292295141 1
-22.0865123272 -10.131426096 6.092040112 1.8406865503 1
-18.844448328 -10.131426096 5.1808500191 4.3140841639 1
-15.6023843288 -10.131426096 1.5592830737 6.3437185804 1
-12.3603203297 -10.131426096 -3.6308230894 6.3322677802 1
-9.1182563305 -10.131426096 -7.484976036 4.9411546723 1
-5.8761923313 -10.131426096 -8.4363816147 3.4579529631 1
-2.6341283321 -10.131426096 -6.4022129542 0.0328146496 1
0.607935667 -10.131426096 -2.0916027694 -4.9388593189 1
3.8499996662 -10.131426096 1.1759638818 -8.3889557843 1
7.0920636654 -10.131426096 3.1204149306 -7.8729976528 1
10.3341276646 -10.131426096 4.2336245078 -5.4216405048 1
13.5761916637 -10.131426096 5.9438916849 -3.7315151899 1
16.8182556629 -10.131426096 7.2810905579 -5.4675844102 1
20.0603196621 -10.131426096 7.859985819 -8.176370186 1
23.3023836613 -10.131426096 6.8661998394 -9.1609602587 1
26.5444476604 -10.131426096 5.4070265735 -7.7541193602 1
29.7865116596 -10.131426096 4.2897957496 -5.2597181456 1
33.0285756588 -10.131426096 4.0217237111 -3.6765912653 1
36.270639658 -10.131426096 0 -0 0
39.5127036572 -10.131426096 0 -0 0
42.7547676563 -10.131426096 0 -0 0
-35.0547683239 -13.3734900951 0 -0 0
-31.8127043247 -13.3734900951 0 -0 0
-28.5706403255 -13.3734900951 0 -0 0
-25.3285763264 -13.3734900951 4.4680440441 3.2163514646 1
-22.0865123272 -13.3734900951 4.7029515167 3.9688421136 1
-18.844448328 -13.3734900951 2.8574188177 6.0451722679 1
-15.6023843288 -13.3734900951 0.034562417 6.3533673984 1
-12.3603203297 -13.3734900951 -3.955701653 4.9902553681 1
-9.1182563305 -13.3734900951 -6.5895007504 3.4844678884 1
-5.8761923313 -13.3734900951 -6.6627352667 1.8910754762 1
-2.6341283321 -13.3734900951 -4.4861037231 -0.676999956 1
0.607935667 -13.3734900951 -1.030450416 -4.9837258998 1
3.8499996662 -13.3734900951 1.6192525789 -9.3112379718 1
7.0920636654 -13.3734900951 4.1604651747 -10.4649963775 1
10.3341276646 -13.3734900951 7.0117026617 -8.1664894775 1
13.5761916637 -13.3734900951 9.2084953918 -4.3848279711 1
16.8182556629 -13.3734900951 10.1050250545 -3.9843292575 1
20.0603196621 -13.3734900951 9.1682648089 -5.39416571 1
23.3023836613 -13.3734900951 6.371663195 -6.3215688124 1
26.5444476604 -13.3734900951 3.8276766698 -6.0308554463 1
29.7865116596 -13.3734900951 2.6606232099 -5.5213340874 1
33.0285756588 -13.3734900951 3.4688189042 -5.0827343788 1
36.270639658 -13.3734900951 0 -0 0
39.5127036572 -13.3734900951 0 -0 0
42.7547676563 -13.3734900951 0 -0 0
-35.0547683239 -16.6155540943 0 -0 0
-31.8127043247 -16.6155540943 0 -0 0
-28.5706403255 -16.6155540943 0 -0 0
-25.3285763264 -16.6155540943 5.1584574906 3.5625724067 1
-22.0865123272 -16.6155540943 3.2327335608 5.1540751229 1
-18.844448328 -16.6155540943 0.3183598519 5.815299959 1
-15.6023843288 -16.6155540943 -1.5307111773 4.7844093888 1
-12.3603203297 -16.6155540943 -3.1865145874 3.3602090119 1
-9.1182563305 -16.6155540943 -4.083243531 2.4477264617 1
-5.8761923313 -16.6155540943 -3.7083602611 0.2145029974 1
-2.6341283321 -16.6155540943 -2.100627174 -2.234582575 1
0.607935667 -16.6155540943 -0.4675620521 -4.6403733946 1
3.8499996662 -16.6155540943 0.4623896187 -7.7124068522 1
7.0920636654 -16.6155540943 2.9847719827 -9.5576493862 1
10.3341276646 -16.6155540943 8.1678657234 -8.2971271539 1
13.5761916637 -16.6155540943 12.4834327182 -3.6872367896 1
16.8182556629 -16.6155540943 13.320128598 0.0687898827 1
20.0603196621 -16.6155540943 10.1877652689 1.3363397007 1
23.3023836613 -16.6155540943 5.1726674253 0.6863507585 1
26.5444476604 -16.6155540943 1.8913223127 -1.4918867324 1
29.7865116596 -16.6155540943 0.8277273343 -4.2001779292 1
33.0285756588 -16.6155540943 0 -0 0
36.270639658 -16.6155540943 0 -0 0
39.5127036572 -16.6155540943 0 -0 0
42.7547676563 -16.6155540943 0 -0 0
-35.0547683239 -19.8576180935 0 -0 0
-31.8127043247 -19.8576180935 0 -0 0
-28.5706403255 -19.8576180935 0 -0 0
-25.3285763264 -19.8576180935 0 -0 0
-22.0865123272 -19.8576180935 1.4835572444 4.7947484433 1
-18.844448328 -19.8576180935 -1.9179682802 4.1214197092 1
-15.6023843288 -19.8576180935 -3.5981286452 2.9452452237 1
-12.3603203297 -19.8576180935 -3.7245089572 1.6010170195 1
-9.1182563305 -19.8576180935 -3.29564261 0.6289814536 1
-5.8761923313 -19.8576180935 -2.5286024941 -1.600005669 1
-2.6341283321 -19.8576180935 -0.9522174974 -3.2346273331 1
0.607935667 -19.8576180935 -0.4912170325 -2.958117259 1
3.8499996662 -19.8576180935 -0.6797096476 -2.6938994939 1
7.0920636654 -19.8576180935 0.8618359934 -4.654451985 1
10.3341276646 -19.8576180935 6.4751316406 -5.722389173 1
13.5761916637 -19.8576180935 11.9783655889 -2.7548395876 1
16.8182556629 -19.8576180935 13.1748600817 3.2048037414 1
20.0603196621 -19.8576180935 9.3602912628 7.0235912761 1
23.3023836613 -19.8576180935 3.9730031588 6.3976095659 1
26.5444476604 -19.8576180935 0.835795568 2.7247813879 1
29.7865116596 -19.8576180935 -0.1306158894 -1.5665917001 1
33.0285756588 -19.8576180935 0 -0 0
36.270639658 -19.8576180935 0 -0 0
39.5127036572 -19.8576180935 0 -0 0
42.7547676563 -19.8576180935 0 -0 0
-35.0547683239 -23.0996820927 0 -0 0
-31.8127043247 -23.0996820927 0 -0 0
-28.5706403255 -23.0996820927 0 -0 0
-25.3285763264 -23.0996820927 0 -0 0
-22.0865123272 -23.0996820927 0.1473341967 3.7697282049 1
-18.844448328 -23.0996820927 -2.9536207576 2.5765867639 1
-15.6023843288 -23.0996820927 -5.0231750601 1.0057927283 1
-12.3603203297 -23.0996820927 -5.5160585789 -1.0211404511 1
-9.1182563305 -23.0996820927 -4.6953314385 -2.7033275932 1
-5.8761923313 -23.0996820927 -3.2498892292 -3.7979216186 1
-2.6341283321 -23.0996820927 -1.0133700064 -3.6114538935 1
0.607935667 -23.0996820927 -0.3544252757 -1.3957101555 1
3.8499996662 -23.0996820927 -1.1095165402 0.9411447269 1
7.0920636654 -23.0996820927 -0.928693446 -0.4597701319 1
10.3341276646 -23.0996820927 2.183394865 -2.9363648449 1
13.5761916637 -23.0996820927 6.7561569364 -1.6846091597 1
16.8182556629 -23.0996820927 8.2072955595 3.997128525 1
20.0603196621 -23.0996820927 5.8581592379 8.2658026147 1
23.3023836613 -23.0996820927 2.2940925265 7.2775844222 1
26.5444476604 -23.0996820927 0.0904007904 4.1136755333 1
29.7865116596 -23.0996820927 0 -0 0
33.0285756588 -23.0996820927 0 -0 0
36.270639658 -23.0996820927 0 -0 0
39.5127036572 -23.0996820927 0 -0 0
42.7547676563 -23.0996820927 0 -0 0
-35.0547683239 -26.3417460918 0 -0 0
-31.8127043247 -26.3417460918 0 -0 0
-28.5706403255 -26.3417460918 0 -0 0
-25.3285763264 -26.3417460918 0 -0 0
-22.0865123272 -26.3417460918 0 -0 0
-18.844448328 -26.3417460918 -3.5509890545 4.3762573835 1
-15.6023843288 -26.3417460918 -5.3296953253 2.2691156873 1
-12.3603203297 -26.3417460918 -6.5969363428 -1.6383684466 1
-9.1182563305 -26.3417460918 -6.2840605271 -5.2630594217 1
-5.8761923313 -26.3417460918 -4.3617741925 -5.8240302733 1
-2.6341283321 -26.3417460918 -1.2825196713 -4.4343172646 1
0.607935667 -26.3417460918 -0.0003714542 -1.9622744591 1
3.8499996662 -26.3417460918 -0.6531818144 0.4942852787 1
7.0920636654 -26.3417460918 -1.8198807204 0.1475875533 1
10.3341276646 -26.3417460918 -1.4515764371 -1.6769267307 1
13.5761916637 -26.3417460918 1.2780578932 -1.3437902391 1
16.8182556629 -26.3417460918 3.153484989 2.2489726173 1
20.0603196621 -26.3417460918 2.8359254687 5.562523634 1
23.3023836613 -26.3417460918 1.0897140593 5.2761865969 1
26.5444476604 -26.3417460918 0 -0 0
29.7865116596 -26.3417460918 0 -0 0
33.0285756588 -26.3417460918 0 -0 0
36.270639658 -26.3417460918 0 -0 0
39.5127036572 -26.3417460918 0 -0 0
42.7547676563 -26.3417460918 0 -0 0
-35.0547683239 -29.583810091 0 -0 0
-31.8127043247 -29.583810091 0 -0 0
-28.5706403255 -29.583810091 0 -0 0
-25.3285763264 -29.583810091 0 -0 0
-22.0865123272 -29.583810091 0 -0 0
-18.844448328 -29.583810091 0 -0 0
-15.6023843288 -29.583810091 -5.1955720452 2.7691050793 1
-12.3603203297 -29.583810091 -6.6219098606 -2.1946723513 1
-9.1182563305 -29.583810091 -6.7386836263 -5.9446435173 1
-5.8761923313 -29.583810091 -4.8396787337 -6.3682645502 1
-2.6341283321 -29.583810091 -1.7337485038 -4.890900865 1
0.607935667 -29.583810091 -0.1548040688 -3.3126198315 1
3.8499996662 -29.583810091 -0.6289599781 -1.9198320094 1
7.0920636654 -29.583810091 -2.1350135431 -1.673899322 1
10.3341276646 -29.583810091 -2.4188474915 -2.1744349248 1
13.5761916637 -29.583810091 -0.3447416968 -2.3063762302 1
16.8182556629 -29.583810091 1.6905359543 -0.9062645338 1
20.0603196621 -29.583810091 2.3626892332 1.1377078403 1
23.3023836613 -29.583810091 0 -0 0
26.5444476604 -29.583810091 0 -0 0
29.7865116596 -29.583810091 0 -0 0
33.0285756588 -29.583810091 0 -0 0
36.270639658 -29.583810091 0 -0 0
39.5127036572 -29.583810091 0 -0 0
42.7547676563 -29.583810091 0 -0 0
-35.0547683239 -32.8258740902 0 -0 0
-31.8127043247 -32.8258740902 0 -0 0
-28.5706403255 -32.8258740902 0 -0 0
-25.3285763264 -32.8258740902 0 -0 0
-22.0865123272 -32.8258740902 0 -0 0
-18.844448328 -32.8258740902 0 -0 0
-15.6023843288 -32.8258740902 0 -0 0
-12.3603203297 -32.8258740902 0 -0 0
-9.1182563305 -32.8258740902 -6.1907300435 -4.9302271354 1
-5.8761923313 -32.8258740902 -4.8514477795 -5.1365317626 1
-2.6341283321 -32.8258740902 -2.6388218814 -4.2084713353 1
0.607935667 -32.8258740902 -1.3807597112 -3.5241211606 1
3.8499996662 -32.8258740902 -1.5447899187 -3.4191713938 1
7.0920636654 -32.8258740902 -2.2580329528 -3.3439150823 1
10.3341276646 -32.8258740902 -1.8782673014 -3.3201031305 1
13.5761916637 -32.8258740902 0.2637480396 -3.6988898901 1
16.8182556629 -32.8258740902 0 -0 0
20.0603196621 -32.8258740902 0 -0 0
23.3023836613 -32.8258740902 0 -0 0
26.5444476604 -32.8258740902 0 -0 0
29.7865116596 -32.8258740902 0 -0 0
33.0285756588 -32.8258740902 0 -0 0
36.270639658 -32.8258740902 0 -0 0
39.5127036572 -32.8258740902 0 -0 0
42.7547676563 -32.8258740902 0 -0 0
-35.0547683239 -36.0679380894 0 -0 0
-31.8127043247 -36.0679380894 0 -0 0
-28.5706403255 -36.0679380894 0 -0 0
-25.3285763264 -36.0679380894 0 -0 0
-22.0865123272 -36.0679380894 0 -0 0
-18.844448328 -36.0679380894 0 -0 0
-15.6023843288 -36.0679380894 0 -0 0
-12.3603203297 -36.0679380894 0 -0 0
-9.1182563305 -36.0679380894 0 -0 0
-5.8761923313 -36.0679380894 0 -0 0
-2.6341283321 -36.0679380894 0 -0 0
0.607935667 -36.0679380894 0 -0 0
3.8499996662 -36.0679380894 0 -0 0
7.0920636654 -36.0679380894 0 -0 0
10.3341276646 -36.0679380894 0 -0 0
13.5761916637 -36.0679380894 0 -0 0
16.8182556629 -36.0679380894 0 -0 0
20.0603196621 -36.0679380894 0 -0 0
23.3023836613 -36.0679380894 0 -0 0
26.5444476604 -36.0679380894 0 -0 0
29.7865116596 -36.0679380894 0 -0 0
33.0285756588 -36.0679380894 0 -0 0
36.270639658 -36.0679380894 0 -0 0
39.5127036572 -36.0679380894 0 -0 0
42.7547676563 -36.0679380894 0 -0 0
-35.0547683239 -39.3100020885 0 -0 0
-31.8127043247 -39.3100020885 0 -0 0
-28.5706403255 -39.3100020885 0 -0 0
-25.3285763264 -39.3100020885 0 -0 0
-22.0865123272 -39.3100020885 0 -0 0
-18.844448328 -39.3100020885 0 -0 0
-15.6023843288 -39.3100020885 0 -0 0
-12.3603203297 -39.3100020885 0 -0 0
-9.1182563305 -39.3100020885 0 -0 0
-5.8761923313 -39.3100020885 0 -0 0
-2.6341283321 -39.3100020885 0 -0 0
0.607935667 -39.3100020885 0 -0 0
3.8499996662 -39.3100020885 0 -0 0
7.0920636654 -39.3100020885 0 -0 0
10.3341276646 -39.3100020885 0 -0 0
13.5761916637 -39.3100020885 0 -0 0
16.8182556629 -39.3100020885 0 -0 0
20.0603196621 -39.3100020885 0 -0 0
23.3023836613 -39.3100020885 0 -0 0
26.5444476604 -39.3100020885 0 -0 0
29.7865116596 -39.3100020885 0 -0 0
33.0285756588 -39.3100020885 0 -0 0
36.270639658 -39.3100020885 0 -0 0
39.5127036572 -39.3100020885 0 -0 0
42.7547676563 -39.3100020885 0 -0 0
-35.0547683239 -42.5520660877 0 -0 0
-31.8127043247 -42.5520660877 0 -0 0
-28.5706403255 -42.5520660877 0 -0 0
-25.3285763264 -42.5520660877 0 -0 0
-22.0865123272 -42.5520660877 0 -0 0
-18.844448328 -42.5520660877 0 -0 0
-15.6023843288 -42.5520660877 0 -0 0
-12.3603203297 -42.5520660877 0 -0 0
-9.1182563305 -42.5520660877 0 -0 0
-5.8761923313 -42.5520660877 0 -0 0
-2.6341283321 -42.5520660877 0 -0 0
0.607935667 -42.5520660877 0 -0 0
3.8499996662 -42.5520660877 0 -0 0
7.0920636654 -42.5520660877 0 -0 0
10.3341276646 -42.5520660877 0 -0 0
13.5761916637 -42.5520660877 0 -0 0
16.8182556629 -42.5520660877 0 -0 0
20.0603196621 -42.5520660877 0 -0 0
23.3023836613 -42.5520660877 0 -0 0
26.5444476604 -42.5520660877 0 -0 0
29.7865116596 -42.5520660877 0 -0 0
33.0285756588 -42.5520660877 0 -0 0
36.270639658 -42.5520660877 0 -0 0
39.5127036572 -42.5520660877 0 -0 0
42.7547676563 -42.5520660877 0 -0 0
