TITLE = "B00080"
VARIABLES = "x", "y", "Vx", "Vy", "isValid"
ZONE T="Frame 0", I=25, J=25, F=POINT
-35.0547683239 35.2574698925 0 -0 0
-31.8127043247 35.2574698925 0 -0 0
-28.5706403255 35.2574698925 0 -0 0
-25.3285763264 35.2574698925 0 -0 0
-22.0865123272 35.2574698925 0 -0 0
-18.844448328 35.2574698925 0 -0 0
-15.6023843288 35.2574698925 0 -0 0
-12.3603203297 35.2574698925 0 -0 0
-9.1182563305 35.2574698925 0 -0 0
-5.8761923313 35.2574698925 0 -0 0
-2.6341283321 35.2574698925 0 -0 0
0.607935667 35.2574698925 0 -0 0
3.8499996662 35.2574698925 0 -0 0
7.0920636654 35.2574698925 0 -0 0
10.3341276646 35.2574698925 0 -0 0
13.5761916637 35.2574698925 0 -0 0
16.8182556629 35.2574698925 0 -0 0
20.0603196621 35.2574698925 0 -0 0
23.3023836613 35.2574698925 0 -0 0
26.5444476604 35.2574698925 0 -0 0
29.7865116596 35.2574698925 0 -0 0
33.0285756588 35.2574698925 0 -0 0
36.270639658 35.2574698925 0 -0 0
39.5127036572 35.2574698925 0 -0 0
42.7547676563 35.2574698925 0 -0 0
-35.0547683239 32.0154058933 0 -0 0
-31.8127043247 32.0154058933 0 -0 0
-28.5706403255 32.0154058933 0 -0 0
-25.3285763264 32.0154058933 0 -0 0
-22.0865123272 32.0154058933 0 -0 0
-18.844448328 32.0154058933 0 -0 0
-15.6023843288 32.0154058933 0 -0 0
-12.3603203297 32.0154058933 0 -0 0
-9.1182563305 32.0154058933 0 -0 0
-5.8761923313 32.0154058933 0 -0 0
-2.6341283321 32.0154058933 0 -0 0
0.607935667 32.0154058933 0 -0 0
3.8499996662 32.0154058933 0 -0 0
7.0920636654 32.0154058933 0 -0 0
10.3341276646 32.0154058933 0 -0 0
13.5761916637 32.0154058933 0 -0 0
16.8182556629 32.0154058933 0 -0 0
20.0603196621 32.0154058933 0 -0 0
23.3023836613 32.0154058933 0 -0 0
26.5444476604 32.0154058933 0 -0 0
29.7865116596 32.0154058933 0 -0 0
33.0285756588 32.0154058933 0 -0 0
36.270639658 32.0154058933 0 -0 0
39.5127036572 32.0154058933 0 -0 0
42.7547676563 32.0154058933 0 -0 0
-35.0547683239 28.7733418941 0 -0 0
-31.8127043247 28.7733418941 0 -0 0
-28.5706403255 28.7733418941 0 -0 0
-25.3285763264 28.7733418941 0 -0 0
-22.0865123272 28.7733418941 0 -0 0
-18.844448328 28.7733418941 0 -0 0
-15.6023843288 28.7733418941 0 -0 0
-12.3603203297 28.7733418941 0 -0 0
-9.1182563305 28.7733418941 0 -0 0
-5.8761923313 28.7733418941 0 -0 0
-2.6341283321 28.7733418941 0 -0 0
0.607935667 28.7733418941 0 -0 0
3.8499996662 28.7733418941 0 -0 0
7.0920636654 28.7733418941 0 -0 0
10.3341276646 28.7733418941 0 -0 0
13.5761916637 28.7733418941 0 -0 0
16.8182556629 28.7733418941 0 -0 0
20.0603196621 28.7733418941 0 -0 0
23.3023836613 28.7733418941 0 -0 0
26.5444476604 28.7733418941 0 -0 0
29.7865116596 28.7733418941 0 -0 0
33.0285756588 28.7733418941 0 -0 0
36.270639658 28.7733418941 0 -0 0
39.5127036572 28.7733418941 0 -0 0
42.7547676563 28.7733418941 0 -0 0
-35.0547683239 25.531277895 0 -0 0
-31.8127043247 25.531277895 0 -0 0
-28.5706403255 25.531277895 0 -0 0
-25.3285763264 25.531277895 0 -0 0
-22.0865123272 25.531277895 0 -0 0
-18.844448328 25.531277895 0 -0 0
-15.6023843288 25.531277895 0 -0 0
-12.3603203297 25.531277895 0 -0 0
-9.1182563305 25.531277895 5.415923559 1.8297875467 1
-5.8761923313 25.531277895 4.150692863 0.6622397344 1
-2.6341283321 25.531277895 2.3407370853 -1.6618642664 1
0.607935667 25.531277895 0.6894334979 -2.9673059193 1
3.8499996662 25.531277895 0.1663535093 -2.8160372367 1
7.0920636654 25.531277895 1.6266312555 -3.1261231201 1
10.3341276646 25.531277895 3.918146265 -4.4354489384 1
13.5761916637 25.531277895 5.005763044 -6.6570611965 1
16.8182556629 25.531277895 4.2753801933 -9.1797409722 1
20.0603196621 25.531277895 0 -0 0
23.3023836613 25.531277895 0 -0 0
26.5444476604 25.531277895 0 -0 0
29.7865116596 25.531277895 0 -0 0
33.0285756588 25.531277895 0 -0 0
36.270639658 25.531277895 0 -0 0
39.5127036572 25.531277895 0 -0 0
42.7547676563 25.531277895 0 -0 0
-35.0547683239 22.2892138958 0 -0 0
-31.8127043247 22.2892138958 0 -0 0
-28.5706403255 22.2892138958 0 -0 0
-25.3285763264 22.2892138958 0 -0 0
-22.0865123272 22.2892138958 0 -0 0
-18.844448328 22.2892138958 0 -0 0
-15.6023843288 22.2892138958 0.599150804 0.2327355752 1
-12.3603203297 22.2892138958 3.861869042 0.7705253423 1
-9.1182563305 22.2892138958 4.5591380527 1.4732575932 1
-5.8761923313 22.2892138958 3.260395257 0.6239657652 1
-2.6341283321 22.2892138958 2.0175072691 -1.8863066243 1
0.607935667 22.2892138958 1.4578288748 -3.4969193202 1
3.8499996662 22.2892138958 1.7331065778 -4.2054304902 1
7.0920636654 22.2892138958 3.2861136625 -5.2015909317 1
10.3341276646 22.2892138958 4.8553485518 -6.0241668552 1
13.5761916637 22.2892138958 5.3681317764 -7.4707727441 1
16.8182556629 22.2892138958 4.460958703 -10.087472032 1
20.0603196621 22.2892138958 3.1303705203 -11.7296123222 1
23.3023836613 22.2892138958 0 -0 0
26.5444476604 22.2892138958 0 -0 0
29.7865116596 22.2892138958 0 -0 0
33.0285756588 22.2892138958 0 -0 0
36.270639658 22.2892138958 0 -0 0
39.5127036572 22.2892138958 0 -0 0
42.7547676563 22.2892138958 0 -0 0
-35.0547683239 19.0471498966 0 -0 0
-31.8127043247 19.0471498966 0 -0 0
-28.5706403255 19.0471498966 0 -0 0
-25.3285763264 19.0471498966 0 -0 0
-22.0865123272 19.0471498966 0 -0 0
-18.844448328 19.0471498966 -5.6372177318 4.6758964195 1
-15.6023843288 19.0471498966 -0.2357209764 2.5212192884 1
-12.3603203297 19.0471498966 4.043772631 2.1800238477 1
-9.1182563305 19.0471498966 4.8906324397 2.0406855983 1
-5.8761923313 19.0471498966 3.1230602333 0.0945404639 1
-2.6341283321 19.0471498966 1.6264176325 -2.7924079591 1
0.607935667 19.0471498966 0.9076880333 -4.6622631917 1
3.8499996662 19.0471498966 0.8591671393 -5.4280235319 1
7.0920636654 19.0471498966 2.3362514538 -6.6984741793 1
10.3341276646 19.0471498966 4.2695397538 -7.5617402395 1
13.5761916637 19.0471498966 5.7760760465 -8.2148042215 1
16.8182556629 19.0471498966 3.667055977 -12.6316904478 1
20.0603196621 19.0471498966 2.4014723122 -13.3632252023 1
23.3023836613 19.0471498966 1.8239856046 -9.7983420432 1
26.5444476604 19.0471498966 0 -0 0
29.7865116596 19.0471498966 0 -0 0
33.0285756588 19.0471498966 0 -0 0
36.270639658 19.0471498966 0 -0 0
39.5127036572 19.0471498966 0 -0 0
42.7547676563 19.0471498966 0 -0 0
-35.0547683239 15.8050858974 0 -0 0
-31.8127043247 15.8050858974 0 -0 0
-28.5706403255 15.8050858974 0 -0 0
-25.3285763264 15.8050858974 0 -0 0
-22.0865123272 15.8050858974 -6.8958359259 5.1479535765 1
-18.844448328 15.8050858974 -5.1120570509 4.6993593278 1
-15.6023843288 15.8050858974 -0.5994175686 4.3390271857 1
-12.3603203297 15.8050858974 4.6372794079 4.2074809697 1
-9.1182563305 15.8050858974 6.1267675231 3.3434700217 1
-5.8761923313 15.8050858974 4.181829293 0.6915231542 1
-2.6341283321 15.8050858974 1.4269788355 -2.4426055469 1
0.607935667 15.8050858974 -0.4164194822 -4.3652202421 1
3.8499996662 15.8050858974 -0.9329469606 -5.3105088036 1
7.0920636654 15.8050858974 0.9445264631 -7.5808023617 1
10.3341276646 15.8050858974 3.683760546 -10.1128211641 1
13.5761916637 15.8050858974 6.2758839721 -12.3298535852 1
16.8182556629 15.8050858974 3.061639148 -18.5543943478 1
20.0603196621 15.8050858974 1.8823194969 -19.9854424385 1
23.3023836613 15.8050858974 1.8280699569 -15.5634600567 1
26.5444476604 15.8050858974 5.3244530304 -5.3211340978 1
29.7865116596 15.8050858974 0 -0 0
33.0285756588 15.8050858974 0 -0 0
36.270639658 15.8050858974 0 -0 0
39.5127036572 15.8050858974 0 -0 0
42.7547676563 15.8050858974 0 -0 0
-35.0547683239 12.5630218983 0 -0 0
-31.8127043247 12.5630218983 0 -0 0
-28.5706403255 12.5630218983 0 -0 0
-25.3285763264 12.5630218983 0 -0 0
-22.0865123272 12.5630218983 -3.3593089266 2.6430188576 1
-18.844448328 12.5630218983 -3.0787628107 2.5982232328 1
-15.6023843288 12.5630218983 0.5989215932 3.2992583503 1
-12.3603203297 12.5630218983 5.7918470147 3.3440216674 1
-9.1182563305 12.5630218983 7.7975728584 2.1786024617 1
-5.8761923313 12.5630218983 5.9748104157 -0.085221903 1
-2.6341283321 12.5630218983 2.1588831655 -1.8461960628 1
0.607935667 12.5630218983 -0.2009180801 -2.5051836691 1
3.8499996662 12.5630218983 -0.9786100611 -3.6728037208 1
7.0920636654 12.5630218983 0.5799881356 -7.7619565338 1
10.3341276646 12.5630218983 3.3871019669 -12.5748627868 1
13.5761916637 12.5630218983 5.5103337827 -15.7775142946 1
16.8182556629 12.5630218983 3.190067826 -20.5233317329 1
20.0603196621 12.5630218983 2.3717651186 -20.3501965027 1
23.3023836613 12.5630218983 3.2202286855 -15.9207863789 1
26.5444476604 12.5630218983 6.4116123692 -6.5189704152 1
29.7865116596 12.5630218983 6.6784156527 -1.4354861666 1
33.0285756588 12.5630218983 0 -0 0
36.270639658 12.5630218983 0 -0 0
39.5127036572 12.5630218983 0 -0 0
42.7547676563 12.5630218983 0 -0 0
-35.0547683239 9.3209578991 0 -0 0
-31.8127043247 9.3209578991 0 -0 0
-28.5706403255 9.3209578991 0 -0 0
-25.3285763264 9.3209578991 1.3903917714 1.7425265247 1
-22.0865123272 9.3209578991 -0.0334346354 1.3438504763 1
-18.844448328 9.3209578991 0.2975519839 0.6555500865 1
-15.6023843288 9.3209578991 2.8621792152 0.6522177177 1
-12.3603203297 9.3209578991 6.7074623509 -0.2040185396 1
-9.1182563305 9.3209578991 7.7752256211 -1.5833847377 1
-5.8761923313 9.3209578991 5.8755184143 -2.0692898024 1
-2.6341283321 9.3209578991 2.7444881535 -1.3327733277 1
0.607935667 9.3209578991 1.7992146891 -0.405872768 1
3.8499996662 9.3209578991 1.9133519084 -2.0695752873 1
7.0920636654 9.3209578991 2.8259656518 -7.2630828128 1
10.3341276646 9.3209578991 3.6624181674 -12.7525379979 1
13.5761916637 9.3209578991 4.420560543 -16.1818262178 1
16.8182556629 9.3209578991 3.9037666396 -17.8892575676 1
20.0603196621 9.3209578991 3.6316818088 -16.5009787773 1
23.3023836613 9.3209578991 4.5525747671 -12.160182219 1
26.5444476604 9.3209578991 5.6606374626 -5.8956029078 1
29.7865116596 9.3209578991 5.4298297413 -2.5887175347 1
33.0285756588 9.3209578991 0 -0 0
36.270639658 9.3209578991 0 -0 0
39.5127036572 9.3209578991 0 -0 0
42.7547676563 9.3209578991 0 -0 0
-35.0547683239 6.0788938999 0 -0 0
-31.8127043247 6.0788938999 0 -0 0
-28.5706403255 6.0788938999 0 -0 0
-25.3285763264 6.0788938999 0.9939464611 -0.4355284429 1
-22.0865123272 6.0788938999 1.3653818698 0.6423602587 1
-18.844448328 6.0788938999 2.7705072921 0.7090373772 1
-15.6023843288 6.0788938999 5.0935752588 -0.3338128011 1
-12.3603203297 6.0788938999 6.8043195023 -2.3394357208 1
-9.1182563305 6.0788938999 5.9072813714 -3.8755792647 1
-5.8761923313 6.0788938999 3.7715848384 -3.1643581767 1
-2.6341283321 6.0788938999 2.4073817452 -0.8388530954 1
0.607935667 6.0788938999 3.2895554849 0.7444757833 1
3.8499996662 6.0788938999 4.4270253959 -1.1122219291 1
7.0920636654 6.0788938999 4.6825321709 -6.2047902156 1
10.3341276646 6.0788938999 3.9138152271 -10.5433149718 1
13.5761916637 6.0788938999 3.7129059788 -12.384078517 1
16.8182556629 6.0788938999 4.5381416982 -10.7656037374 1
20.0603196621 6.0788938999 4.4350642659 -7.5757931649 1
23.3023836613 6.0788938999 4.5817845133 -4.589993074 1
26.5444476604 6.0788938999 3.9055746607 -3.3144492904 1
29.7865116596 6.0788938999 3.8404843917 -3.8848720946 1
33.0285756588 6.0788938999 3.3502972035 -5.2184259391 1
36.270639658 6.0788938999 0 -0 0
39.5127036572 6.0788938999 0 -0 0
42.7547676563 6.0788938999 0 -0 0
-35.0547683239 2.8368299007 0 -0 0
-31.8127043247 2.8368299007 0 -0 0
-28.5706403255 2.8368299007 -1.3318033431 -6.1684582914 1
-25.3285763264 2.8368299007 -0.6323927045 -3.7914474055 1
-22.0865123272 2.8368299007 0.5769220407 -1.3930562474 1
-18.844448328 2.8368299007 3.2747338184 0.6521597451 1
-15.6023843288 2.8368299007 5.6547610922 0.7569485019 1
-12.3603203297 2.8368299007 5.6727434743 -1.0021791016 1
-9.1182563305 2.8368299007 2.3823890542 -2.7361358691 1
-5.8761923313 2.8368299007 -0.739176648 -2.0910724105 1
-2.6341283321 2.8368299007 -0.7709263196 0.1583876335 1
0.607935667 2.8368299007 1.8601481401 1.1991786703 1
3.8499996662 2.8368299007 4.4266132468 -0.43578664 1
7.0920636654 2.8368299007 5.3703196389 -4.1274358782 1
10.3341276646 2.8368299007 4.5987058757 -6.9955947277 1
13.5761916637 2.8368299007 4.5522891312 -8.1745518989 1
16.8182556629 2.8368299007 4.2986761284 -7.1414218344 1
20.0603196621 2.8368299007 3.7662063682 -4.5819777554 1
23.3023836613 2.8368299007 3.0846630345 -2.8407613515 1
26.5444476604 2.8368299007 2.7558381056 -3.1472260596 1
29.7865116596 2.8368299007 3.1608970301 -5.0996581567 1
33.0285756588 2.8368299007 3.0090389592 -6.7080354345 1
36.270639658 2.8368299007 0 -0 0
39.5127036572 2.8368299007 0 -0 0
42.7547676563 2.8368299007 0 -0 0
-35.0547683239 -0.4052340984 0 -0 0
-31.8127043247 -0.4052340984 0 -0 0
-28.5706403255 -0.4052340984 -2.0819488185 -5.4952107793 1
-25.3285763264 -0.4052340984 -0.7616099384 -5.4749946396 1
-22.0865123272 -0.4052340984 0.6361013293 -3.8996442428 1
-18.844448328 -0.4052340984 2.4205049952 -1.0103275006 1
-15.6023843288 -0.4052340984 3.0993817393 1.3808262891 1
-12.3603203297 -0.4052340984 1.8145751689 1.678096902 1
-9.1182563305 -0.4052340984 -2.6731818307 1.1209371464 1
-5.8761923313 -0.4052340984 -6.2443939695 1.2651085611 1
-2.6341283321 -0.4052340984 -5.5056814799 2.085889296 1
0.607935667 -0.4052340984 -1.4139994603 1.7326491376 1
3.8499996662 -0.4052340984 2.2782122557 0.2508732869 1
7.0920636654 -0.4052340984 3.8632483072 -2.1622134208 1
10.3341276646 -0.4052340984 3.8926123452 -4.1398525869 1
13.5761916637 -0.4052340984 4.0373141188 -5.5227338846 1
16.8182556629 -0.4052340984 3.4525316173 -5.3928987667 1
20.0603196621 -0.4052340984 2.7609330535 -3.9863111964 1
23.3023836613 -0.4052340984 2.3929379575 -3.1470352331 1
26.5444476604 -0.4052340984 2.6496171683 -3.78430228 1
29.7865116596 -0.4052340984 3.2271038759 -5.1311113226 1
33.0285756588 -0.4052340984 3.1248510438 -6.2055462751 1
36.270639658 -0.4052340984 0 -0 0
39.5127036572 -0.4052340984 0 -0 0
42.7547676563 -0.4052340984 0 -0 0
-35.0547683239 -3.6472980976 0 -0 0
-31.8127043247 -3.6472980976 0 -0 0
-28.5706403255 -3.6472980976 -2.10474323 -0.6581652707 1
-25.3285763264 -3.6472980976 0.7170117828 -2.3391651819 1
-22.0865123272 -3.6472980976 2.3386283313 -3.9741155084 1
-18.844448328 -3.6472980976 1.6963475585 -2.5472139697 1
-15.6023843288 -3.6472980976 -1.3348903852 1.7179413027 1
-12.3603203297 -3.6472980976 -4.8169492394 5.0981381871 1
-9.1182563305 -3.6472980976 -9.0335297969 5.6218755195 1
-5.8761923313 -3.6472980976 -11.1827879977 4.6124218353 1
-2.6341283321 -3.6472980976 -8.5689396341 3.9084089784 1
0.607935667 -3.6472980976 -3.2060577012 3.1672139321 1
3.8499996662 -3.6472980976 0.9295888513 2.5260002179 1
7.0920636654 -3.6472980976 1.9116857994 1.8646013129 1
10.3341276646 -3.6472980976 1.7359987171 0.4300945666 1
13.5761916637 -3.6472980976 1.6007872426 -1.7313974423 1
16.8182556629 -3.6472980976 1.69273831 -3.3757906633 1
20.0603196621 -3.6472980976 1.7874160531 -3.8263496403 1
23.3023836613 -3.6472980976 2.2660165677 -3.7098805327 1
26.5444476604 -3.6472980976 3.2253175946 -3.7180030403 1
29.7865116596 -3.6472980976 3.7867458864 -3.8968165679 1
33.0285756588 -3.6472980976 3.8229458624 -4.5010464679 1
36.270639658 -3.6472980976 0 -0 0
39.5127036572 -3.6472980976 0 -0 0
42.7547676563 -3.6472980976 0 -0 0
-35.0547683239 -6.8893620968 0 -0 0
-31.8127043247 -6.8893620968 0 -0 0
-28.5706403255 -6.8893620968 -2.7931015169 4.0105041975 1
-25.3285763264 -6.8893620968 0.9847336456 1.3464785684 1
-22.0865123272 -6.8893620968 3.3942045187 -2.7589447738 1
-18.844448328 -6.8893620968 1.8739048617 -3.2658640075 1
-15.6023843288 -6.8893620968 -3.1317947747 1.1744222479 1
-12.3603203297 -6.8893620968 -8.2034905024 6.0767800275 1
-9.1182563305 -6.8893620968 -12.3494157212 7.4151594887 1
-5.8761923313 -6.8893620968 -12.8087654006 6.0193249337 1
-2.6341283321 -6.8893620968 -8.2582166558 4.6415757225 1
0.607935667 -6.8893620968 -2.1747762688 4.3928236636 1
3.8499996662 -6.8893620968 1.1175725453 5.0424283107 1
7.0920636654 -6.8893620968 0.2435129155 5.3892766857 1
10.3341276646 -6.8893620968 -1.0189053348 3.6968258233 1
13.5761916637 -6.8893620968 -1.0621529095 0.3560936114 1
16.8182556629 -6.8893620968 -0.0276228802 -2.6187820752 1
20.0603196621 -6.8893620968 1.1667548405 -4.6868565661 1
23.3023836613 -6.8893620968 2.5511065896 -5.3120867458 1
26.5444476604 -6.8893620968 4.0172534786 -4.7798597459 1
29.7865116596 -6.8893620968 4.5973404997 -4.0200319372 1
33.0285756588 -6.8893620968 4.4832992976 -4.0753227198 1
36.270639658 -6.8893620968 0 -0 0
39.5127036572 -6.8893620968 0 -0 0
42.7547676563 -6.8893620968 0 -0 0
-35.0547683239 -10.131426096 0 -0 0
-31.8127043247 -10.131426096 0 -0 0
-28.5706403255 -10.131426096 -4.8134403862 4.1001102421 1
-25.3285763264 -10.131426096 -1.2371958012 0.3758536696 1
-22.0865123272 -10.131426096 2.2649644552 -4.4450850749 1
-18.844448328 -10.131426096 1.8739714396 -5.15340723 1
-15.6023843288 -10.131426096 -1.9106981513 -0.9676188901 1
-12.3603203297 -10.131426096 -6.7246029223 4.3168303148 1
-9.1182563305 -10.131426096 -10.4090950707 6.5654016529 1
-5.8761923313 -10.131426096 -10.0512282746 5.7910547222 1
-2.6341283321 -10.131426096 -5.0338335678 4.2436323333 1
0.607935667 -10.131426096 0.0634585483 3.827380164 1
3.8499996662 -10.131426096 1.495322214 4.702685205 1
7.0920636654 -10.131426096 -0.9254469793 5.3405150694 1
10.3341276646 -10.131426096 -2.707628437 3.8430780626 1
13.5761916637 -10.131426096 -2.365471919 0.7165093535 1
16.8182556629 -10.131426096 -0.9170001874 -2.134697864 1
20.0603196621 -10.131426096 0.9468668057 -4.5077232833 1
23.3023836613 -10.131426096 2.9218587064 -5.9695995226 1
26.5444476604 -10.131426096 4.7636551908 -6.464589078 1
29.7865116596 -10.131426096 5.2268802795 -6.4428366639 1
33.0285756588 -10.131426096 4.9518439781 -6.1500634582 1
36.270639658 -10.131426096 0 -0 0
39.5127036572 -10.131426096 0 -0 0
42.7547676563 -10.131426096 0 -0 0
-35.0547683239 -13.3734900951 0 -0 0
-31.8127043247 -13.3734900951 0 -0 0
-28.5706403255 -13.3734900951 0 -0 0
-25.3285763264 -13.3734900951 -4.4035310858 -4.9459775716 1
-22.0865123272 -13.3734900951 -0.861032982 -8.8423209984 1
-18.844448328 -13.3734900951 1.2315810624 -8.7255985626 1
-15.6023843288 -13.3734900951 1.1165054113 -4.449297752 1
-12.3603203297 -13.3734900951 -1.4449933744 0.8618725282 1
-9.1182563305 -13.3734900951 -4.9347861385 3.8873024155 1
-5.8761923313 -13.3734900951 -5.4831705907 3.9078784685 1
-2.6341283321 -13.3734900951 -2.2741134103 2.5818707267 1
0.607935667 -13.3734900951 1.0567163157 1.9451595527 1
3.8499996662 -13.3734900951 0.8482790056 2.1645065097 1
7.0920636654 -13.3734900951 -1.5913719758 2.7435950129 1
10.3341276646 -13.3734900951 -2.9803853878 2.3116088631 1
13.5761916637 -13.3734900951 -2.2214227903 0.8171261953 1
16.8182556629 -13.3734900951 -0.865118995 -0.9001558954 1
20.0603196621 -13.3734900951 0.8202503005 -2.4127731989 1
23.3023836613 -13.3734900951 2.8573481635 -4.0814829146 1
26.5444476604 -13.3734900951 4.588953794 -5.571963509 1
29.7865116596 -13.3734900951 5.1239462691 -7.1012081602 1
33.0285756588 -13.3734900951 4.9682964265 -7.3222656114 1
36.270639658 -13.3734900951 0 -0 0
39.5127036572 -13.3734900951 0 -0 0
42.7547676563 -13.3734900951 0 -0 0
-35.0547683239 -16.6155540943 0 -0 0
-31.8127043247 -16.6155540943 0 -0 0
-28.5706403255 -16.6155540943 0 -0 0
-25.3285763264 -16.6155540943 -6.83675156 -9.4780873999 1
-22.0865123272 -16.6155540943 -3.8002942689 -11.360533259 1
-18.844448328 -16.6155540943 -0.5021094688 -9.692202026 1
-15.6023843288 -16.6155540943 1.8802688665 -4.8053547154 1
-12.3603203297 -16.6155540943 1.0718944232 0.7757252146 1
-9.1182563305 -16.6155540943 -1.925524045 3.9214549315 1
-5.8761923313 -16.6155540943 -3.7376557586 3.4867653554 1
-2.6341283321 -16.6155540943 -2.7225681623 1.7410379569 1
0.607935667 -16.6155540943 -0.6596876559 0.604650126 1
3.8499996662 -16.6155540943 -0.9105158592 -0.0146370133 1
7.0920636654 -16.6155540943 -1.8208555361 0.2843707236 1
10.3341276646 -16.6155540943 -2.4618587976 0.6883089196 1
13.5761916637 -16.6155540943 -1.7427191629 0.9571515863 1
16.8182556629 -16.6155540943 -0.8793157952 0.6344652634 1
20.0603196621 -16.6155540943 0.1274002018 0.5239028714 1
23.3023836613 -16.6155540943 1.7574141654 -0.8205960227 1
26.5444476604 -16.6155540943 3.4646349115 -3.2018169437 1
29.7865116596 -16.6155540943 4.5714412317 -6.037856244 1
33.0285756588 -16.6155540943 0 -0 0
36.270639658 -16.6155540943 0 -0 0
39.5127036572 -16.6155540943 0 -0 0
42.7547676563 -16.6155540943 0 -0 0
-35.0547683239 -19.8576180935 0 -0 0
-31.8127043247 -19.8576180935 0 -0 0
-28.5706403255 -19.8576180935 0 -0 0
-25.3285763264 -19.8576180935 0 -0 0
-22.0865123272 -19.8576180935 -6.7922630089 -9.4110849402 1
-18.844448328 -19.8576180935 -3.6628282029 -6.3321089594 1
-15.6023843288 -19.8576180935 -0.5316239488 -0.9795762714 1
-12.3603203297 -19.8576180935 -0.3835726334 4.1541482727 1
-9.1182563305 -19.8576180935 -2.7278693357 5.5613370069 1
-5.8761923313 -19.8576180935 -4.7850428605 3.5210809194 1
-2.6341283321 -19.8576180935 -4.5836568478 1.3269932763 1
0.607935667 -19.8576180935 -3.1974907369 0.5486528776 1
3.8499996662 -19.8576180935 -2.6541024979 0.0658504567 1
7.0920636654 -19.8576180935 -2.1753904162 0.3001349925 1
10.3341276646 -19.8576180935 -1.7218212411 0.825609522 1
13.5761916637 -19.8576180935 -0.8944488381 1.3472021694 1
16.8182556629 -19.8576180935 -0.2650658411 1.6245173685 1
20.0603196621 -19.8576180935 -0.1190392648 1.9250152749 1
23.3023836613 -19.8576180935 0.3951113362 1.0358827072 1
26.5444476604 -19.8576180935 1.3831113766 -0.9714777682 1
29.7865116596 -19.8576180935 3.1870894826 -3.7422763575 1
33.0285756588 -19.8576180935 0 -0 0
36.270639658 -19.8576180935 0 -0 0
39.5127036572 -19.8576180935 0 -0 0
42.7547676563 -19.8576180935 0 -0 0
-35.0547683239 -23.0996820927 0 -0 0
-31.8127043247 -23.0996820927 0 -0 0
-28.5706403255 -23.0996820927 0 -0 0
-25.3285763264 -23.0996820927 0 -0 0
-22.0865123272 -23.0996820927 -8.2731560793 -4.4476820671 1
-18.844448328 -23.0996820927 -4.6871304263 -0.4679098878 1
-15.6023843288 -23.0996820927 -1.8545699361 3.9030754973 1
-12.3603203297 -23.0996820927 -1.5813212747 6.7869983703 1
-9.1182563305 -23.0996820927 -3.8250485777 5.9203076984 1
-5.8761923313 -23.0996820927 -5.305997809 2.9833247808 1
-2.6341283321 -23.0996820927 -5.0505360232 0.9399680639 1
0.607935667 -23.0996820927 -4.363401653 0.5102234843 1
3.8499996662 -23.0996820927 -3.7765683702 0.7225771544 1
7.0920636654 -23.0996820927 -2.8104869622 1.2550706925 1
10.3341276646 -23.0996820927 -1.0924854223 1.722117445 1
13.5761916637 -23.0996820927 0.6948748472 1.7041352138 1
16.8182556629 -23.0996820927 1.8868027129 1.5126688599 1
20.0603196621 -23.0996820927 1.3541309543 1.4002084685 1
23.3023836613 -23.0996820927 0.3705738585 0.7203677786 1
26.5444476604 -23.0996820927 -0.2628237047 -0.8985718388 1
29.7865116596 -23.0996820927 0 -0 0
33.0285756588 -23.0996820927 0 -0 0
36.270639658 -23.0996820927 0 -0 0
39.5127036572 -23.0996820927 0 -0 0
42.7547676563 -23.0996820927 0 -0 0
-35.0547683239 -26.3417460918 0 -0 0
-31.8127043247 -26.3417460918 0 -0 0
-28.5706403255 -26.3417460918 0 -0 0
-25.3285763264 -26.3417460918 0 -0 0
-22.0865123272 -26.3417460918 0 -0 0
-18.844448328 -26.3417460918 -2.7004869348 3.6388477682 1
-15.6023843288 -26.3417460918 -0.9271955936 6.0834396322 1
-12.3603203297 -26.3417460918 -1.3527566711 6.8616006782 1
-9.1182563305 -26.3417460918 -3.7498879814 5.2770972501 1
-5.8761923313 -26.3417460918 -4.502767832 2.6835374919 1
-2.6341283321 -26.3417460918 -4.0503793961 0.7319193515 1
0.607935667 -26.3417460918 -4.0030136518 -0.2336833294 1
3.8499996662 -26.3417460918 -3.9039577681 -0.2047721836 1
7.0920636654 -26.3417460918 -3.2211091447 0.4875669087 1
10.3341276646 -26.3417460918 -1.1983906805 1.0651395562 1
13.5761916637 -26.3417460918 1.3850324745 0.731343928 1
16.8182556629 -26.3417460918 3.4526152549 0.0451327605 1
20.0603196621 -26.3417460918 3.1833414923 -0.5106045713 1
23.3023836613 -26.3417460918 1.4108533889 -0.9062806121 1
26.5444476604 -26.3417460918 0 -0 0
29.7865116596 -26.3417460918 0 -0 0
33.0285756588 -26.3417460918 0 -0 0
36.270639658 -26.3417460918 0 -0 0
39.5127036572 -26.3417460918 0 -0 0
42.7547676563 -26.3417460918 0 -0 0
-35.0547683239 -29.583810091 0 -0 0
-31.8127043247 -29.583810091 0 -0 0
-28.5706403255 -29.583810091 0 -0 0
-25.3285763264 -29.583810091 0 -0 0
-22.0865123272 -29.583810091 0 -0 0
-18.844448328 -29.583810091 0 -0 0
-15.6023843288 -29.583810091 0.8899111219 5.9427509529 1
-12.3603203297 -29.583810091 -1.2335006506 6.1882897585 1
-9.1182563305 -29.583810091 -3.9107792131 4.8125454338 1
-5.8761923313 -29.583810091 -4.2894823351 2.3885364165 1
-2.6341283321 -29.583810091 -3.9925055105 -0.0424960772 1
0.607935667 -29.583810091 -4.0895066876 -1.6789299565 1
3.8499996662 -29.583810091 -4.5370918503 -1.9577181735 1
7.0920636654 -29.583810091 -4.0274029143 -1.5017227536 1
10.3341276646 -29.583810091 -2.3401958566 -0.8136134923 1
13.5761916637 -29.583810091 0.2685678252 -0.7570021719 1
16.8182556629 -29.583810091 2.9216074917 -1.306464477 1
20.0603196621 -29.583810091 4.0349764936 -1.6363190239 1
23.3023836613 -29.583810091 0 -0 0
26.5444476604 -29.583810091 0 -0 0
29.7865116596 -29.583810091 0 -0 0
33.0285756588 -29.583810091 0 -0 0
36.270639658 -29.583810091 0 -0 0
39.5127036572 -29.583810091 0 -0 0
42.7547676563 -29.583810091 0 -0 0
-35.0547683239 -32.8258740902 0 -0 0
-31.8127043247 -32.8258740902 0 -0 0
-28.5706403255 -32.8258740902 0 -0 0
-25.3285763264 -32.8258740902 0 -0 0
-22.0865123272 -32.8258740902 0 -0 0
-18.844448328 -32.8258740902 0 -0 0
-15.6023843288 -32.8258740902 0 -0 0
-12.3603203297 -32.8258740902 0 -0 0
-9.1182563305 -32.8258740902 -4.6061049333 4.3019579222 1
-5.8761923313 -32.8258740902 -5.5449404175 1.4562304006 1
-2.6341283321 -32.8258740902 -5.8972309722 -1.7585849405 1
0.607935667 -32.8258740902 -6.0861462289 -3.8587819999 1
3.8499996662 -32.8258740902 -6.4321032749 -4.4315237089 1
7.0920636654 -32.8258740902 -5.6769229379 -4.1095009008 1
10.3341276646 -32.8258740902 -4.2430317732 -3.5117159257 1
13.5761916637 -32.8258740902 -2.0124281731 -2.8064959097 1
16.8182556629 -32.8258740902 0.0345029677 -2.6764352421 1
20.0603196621 -32.8258740902 0 -0 0
23.3023836613 -32.8258740902 0 -0 0
26.5444476604 -32.8258740902 0 -0 0
29.7865116596 -32.8258740902 0 -0 0
33.0285756588 -32.8258740902 0 -0 0
36.270639658 -32.8258740902 0 -0 0
39.5127036572 -32.8258740902 0 -0 0
42.7547676563 -32.8258740902 0 -0 0
-35.0547683239 -36.0679380894 0 -0 0
-31.8127043247 -36.0679380894 0 -0 0
-28.5706403255 -36.0679380894 0 -0 0
-25.3285763264 -36.0679380894 0 -0 0
-22.0865123272 -36.0679380894 0 -0 0
-18.844448328 -36.0679380894 0 -0 0
-15.6023843288 -36.0679380894 0 -0 0
-12.3603203297 -36.0679380894 0 -0 0
-9.1182563305 -36.0679380894 0 -0 0
-5.8761923313 -36.0679380894 0 -0 0
-2.6341283321 -36.0679380894 0 -0 0
0.607935667 -36.0679380894 0 -0 0
3.8499996662 -36.0679380894 0 -0 0
7.0920636654 -36.0679380894 0 -0 0
10.3341276646 -36.0679380894 0 -0 0
13.5761916637 -36.0679380894 0 -0 0
16.8182556629 -36.0679380894 0 -0 0
20.0603196621 -36.0679380894 0 -0 0
23.3023836613 -36.0679380894 0 -0 0
26.5444476604 -36.0679380894 0 -0 0
29.7865116596 -36.0679380894 0 -0 0
33.0285756588 -36.0679380894 0 -0 0
36.270639658 -36.0679380894 0 -0 0
39.5127036572 -36.0679380894 0 -0 0
42.7547676563 -36.0679380894 0 -0 0
-35.0547683239 -39.3100020885 0 -0 0
-31.8127043247 -39.3100020885 0 -0 0
-28.5706403255 -39.3100020885 0 -0 0
-25.3285763264 -39.3100020885 0 -0 0
-22.0865123272 -39.3100020885 0 -0 0
-18.844448328 -39.3100020885 0 -0 0
-15.6023843288 -39.3100020885 0 -0 0
-12.3603203297 -39.3100020885 0 -0 0
-9.1182563305 -39.3100020885 0 -0 0
-5.8761923313 -39.3100020885 0 -0 0
-2.6341283321 -39.3100020885 0 -0 0
0.607935667 -39.3100020885 0 -0 0
3.8499996662 -39.3100020885 0 -0 0
7.0920636654 -39.3100020885 0 -0 0
10.3341276646 -39.3100020885 0 -0 0
13.5761916637 -39.3100020885 0 -0 0
16.8182556629 -39.3100020885 0 -0 0
20.0603196621 -39.3100020885 0 -0 0
23.3023836613 -39.3100020885 0 -0 0
26.5444476604 -39.3100020885 0 -0 0
29.7865116596 -39.3100020885 0 -0 0
33.0285756588 -39.3100020885 0 -0 0
36.270639658 -39.3100020885 0 -0 0
39.5127036572 -39.3100020885 0 -0 0
42.7547676563 -39.3100020885 0 -0 0
-35.0547683239 -42.5520660877 0 -0 0
-31.8127043247 -42.5520660877 0 -0 0
-28.5706403255 -42.5520660877 0 -0 0
-25.3285763264 -42.5520660877 0 -0 0
-22.0865123272 -42.5520660877 0 -0 0
-18.844448328 -42.5520660877 0 -0 0
-15.6023843288 -42.5520660877 0 -0 0
-12.3603203297 -42.5520660877 0 -0 0
-9.1182563305 -42.5520660877 0 -0 0
-5.8761923313 -42.5520660877 0 -0 0
-2.6341283321 -42.5520660877 0 -0 0
0.607935667 -42.5520660877 0 -0 0
3.8499996662 -42.5520660877 0 -0 0
7.0920636654 -42.5520660877 0 -0 0
10.3341276646 -42.5520660877 0 -0 0
13.5761916637 -42.5520660877 0 -0 0
16.8182556629 -42.5520660877 0 -0 0
20.0603196621 -42.5520660877 0 -0 0
23.3023836613 -42.5520660877 0 -0 0
26.5444476604 -42.5520660877 0 -0 0
29.7865116596 -42.5520660877 0 -0 0
33.0285756588 -42.5520660877 0 -0 0
36.270639658 -42.5520660877 0 -0 0
39.5127036572 -42.5520660877 0 -0 0
42.7547676563 -42.5520660877 0 -0 0
