TITLE = "B00070"
VARIABLES = "x", "y", "Vx", "Vy", "isValid"
ZONE T="Frame 0", I=25, J=25, F=POINT
-35.0547683239 35.2574698925 0 -0 0
-31.8127043247 35.2574698925 0 -0 0
-28.5706403255 35.2574698925 0 -0 0
-25.3285763264 35.2574698925 0 -0 0
-22.0865123272 35.2574698925 0 -0 0
-18.844448328 35.2574698925 0 -0 0
-15.6023843288 35.2574698925 0 -0 0
-12.3603203297 35.2574698925 0 -0 0
-9.1182563305 35.2574698925 0 -0 0
-5.8761923313 35.2574698925 0 -0 0
-2.6341283321 35.2574698925 0 -0 0
0.607935667 35.2574698925 0 -0 0
3.8499996662 35.2574698925 0 -0 0
7.0920636654 35.2574698925 0 -0 0
10.3341276646 35.2574698925 0 -0 0
13.5761916637 35.2574698925 0 -0 0
16.8182556629 35.2574698925 0 -0 0
20.0603196621 35.2574698925 0 -0 0
23.3023836613 35.2574698925 0 -0 0
26.5444476604 35.2574698925 0 -0 0
29.7865116596 35.2574698925 0 -0 0
33.0285756588 35.2574698925 0 -0 0
36.270639658 35.2574698925 0 -0 0
39.5127036572 35.2574698925 0 -0 0
42.7547676563 35.2574698925 0 -0 0
-35.0547683239 32.0154058933 0 -0 0
-31.8127043247 32.0154058933 0 -0 0
-28.5706403255 32.0154058933 0 -0 0
-25.3285763264 32.0154058933 0 -0 0
-22.0865123272 32.0154058933 0 -0 0
-18.844448328 32.0154058933 0 -0 0
-15.6023843288 32.0154058933 0 -0 0
-12.3603203297 32.0154058933 0 -0 0
-9.1182563305 32.0154058933 0 -0 0
-5.8761923313 32.0154058933 0 -0 0
-2.6341283321 32.0154058933 0 -0 0
0.607935667 32.0154058933 0 -0 0
3.8499996662 32.0154058933 0 -0 0
7.0920636654 32.0154058933 0 -0 0
10.3341276646 32.0154058933 0 -0 0
13.5761916637 32.0154058933 0 -0 0
16.8182556629 32.0154058933 0 -0 0
20.0603196621 32.0154058933 0 -0 0
23.3023836613 32.0154058933 0 -0 0
26.5444476604 32.0154058933 0 -0 0
29.7865116596 32.0154058933 0 -0 0
33.0285756588 32.0154058933 0 -0 0
36.270639658 32.0154058933 0 -0 0
39.5127036572 32.0154058933 0 -0 0
42.7547676563 32.0154058933 0 -0 0
-35.0547683239 28.7733418941 0 -0 0
-31.8127043247 28.7733418941 0 -0 0
-28.5706403255 28.7733418941 0 -0 0
-25.3285763264 28.7733418941 0 -0 0
-22.0865123272 28.7733418941 0 -0 0
-18.844448328 28.7733418941 0 -0 0
-15.6023843288 28.7733418941 0 -0 0
-12.3603203297 28.7733418941 0 -0 0
-9.1182563305 28.7733418941 0 -0 0
-5.8761923313 28.7733418941 0 -0 0
-2.6341283321 28.7733418941 0 -0 0
0.607935667 28.7733418941 0 -0 0
3.8499996662 28.7733418941 0 -0 0
7.0920636654 28.7733418941 0 -0 0
10.3341276646 28.7733418941 0 -0 0
13.5761916637 28.7733418941 0 -0 0
16.8182556629 28.7733418941 0 -0 0
20.0603196621 28.7733418941 0 -0 0
23.3023836613 28.7733418941 0 -0 0
26.5444476604 28.7733418941 0 -0 0
29.7865116596 28.7733418941 0 -0 0
33.0285756588 28.7733418941 0 -0 0
36.270639658 28.7733418941 0 -0 0
39.5127036572 28.7733418941 0 -0 0
42.7547676563 28.7733418941 0 -0 0
-35.0547683239 25.531277895 0 -0 0
-31.8127043247 25.531277895 0 -0 0
-28.5706403255 25.531277895 0 -0 0
-25.3285763264 25.531277895 0 -0 0
-22.0865123272 25.531277895 0 -0 0
-18.844448328 25.531277895 0 -0 0
-15.6023843288 25.531277895 0 -0 0
-12.3603203297 25.531277895 0 -0 0
-9.1182563305 25.531277895 7.5313740602 0.1425412556 1
-5.8761923313 25.531277895 7.7344467139 1.1626833207 1
-2.6341283321 25.531277895 6.790311264 2.9562896117 1
0.607935667 25.531277895 5.4372629182 3.995335601 1
3.8499996662 25.531277895 -0.2275124723 2.6411830579 1
7.0920636654 25.531277895 -5.2423094508 1.9220538402 1
10.3341276646 25.531277895 -6.0719519952 1.6058174242 1
13.5761916637 25.531277895 -1.5678563788 0.0022432184 1
16.8182556629 25.531277895 3.1902565389 -2.8249927988 1
20.0603196621 25.531277895 0 -0 0
23.3023836613 25.531277895 0 -0 0
26.5444476604 25.531277895 0 -0 0
29.7865116596 25.531277895 0 -0 0
33.0285756588 25.531277895 0 -0 0
36.270639658 25.531277895 0 -0 0
39.5127036572 25.531277895 0 -0 0
42.7547676563 25.531277895 0 -0 0
-35.0547683239 22.2892138958 0 -0 0
-31.8127043247 22.2892138958 0 -0 0
-28.5706403255 22.2892138958 0 -0 0
-25.3285763264 22.2892138958 0 -0 0
-22.0865123272 22.2892138958 0 -0 0
-18.844448328 22.2892138958 0 -0 0
-15.6023843288 22.2892138958 2.5465028993 6.4734419802 1
-12.3603203297 22.2892138958 5.8696819 2.4330239108 1
-9.1182563305 22.2892138958 5.1951614058 -3.4769788524 1
-5.8761923313 22.2892138958 3.3169937449 -6.2265855052 1
-2.6341283321 22.2892138958 2.419925269 -5.1980014603 1
0.607935667 22.2892138958 3.2598861849 -2.2154665564 1
3.8499996662 22.2892138958 1.1627224975 -0.9286333598 1
7.0920636654 22.2892138958 -2.9359267289 -0.7743510069 1
10.3341276646 22.2892138958 -4.1484585016 -0.9450180981 1
13.5761916637 22.2892138958 -0.4969777974 -2.5538956161 1
16.8182556629 22.2892138958 3.685247906 -4.5848612894 1
20.0603196621 22.2892138958 4.6214054779 -6.0752359026 1
23.3023836613 22.2892138958 0 -0 0
26.5444476604 22.2892138958 0 -0 0
29.7865116596 22.2892138958 0 -0 0
33.0285756588 22.2892138958 0 -0 0
36.270639658 22.2892138958 0 -0 0
39.5127036572 22.2892138958 0 -0 0
42.7547676563 22.2892138958 0 -0 0
-35.0547683239 19.0471498966 0 -0 0
-31.8127043247 19.0471498966 0 -0 0
-28.5706403255 19.0471498966 0 -0 0
-25.3285763264 19.0471498966 0 -0 0
-22.0865123272 19.0471498966 0 -0 0
-18.844448328 19.0471498966 -5.0260371562 6.4901767433 1
-15.6023843288 19.0471498966 -0.1864351155 5.1493527699 1
-12.3603203297 19.0471498966 3.1568087526 0.8997286492 1
-9.1182563305 19.0471498966 2.3885278112 -6.454115358 1
-5.8761923313 19.0471498966 0.6356912183 -11.3604197293 1
-2.6341283321 19.0471498966 0.803337317 -10.7702355082 1
0.607935667 19.0471498966 2.7015585225 -6.3884734432 1
3.8499996662 19.0471498966 2.182274061 -3.1580756959 1
7.0920636654 19.0471498966 -0.4853274521 -2.6706095976 1
10.3341276646 19.0471498966 -1.273117388 -4.0600738071 1
13.5761916637 19.0471498966 1.3364342081 -6.0812270105 1
16.8182556629 19.0471498966 4.3707792728 -7.7586219004 1
20.0603196621 19.0471498966 5.0938977315 -7.4967716526 1
23.3023836613 19.0471498966 4.2514248197 -5.1536342894 1
26.5444476604 19.0471498966 0 -0 0
29.7865116596 19.0471498966 0 -0 0
33.0285756588 19.0471498966 0 -0 0
36.270639658 19.0471498966 0 -0 0
39.5127036572 19.0471498966 0 -0 0
42.7547676563 19.0471498966 0 -0 0
-35.0547683239 15.8050858974 0 -0 0
-31.8127043247 15.8050858974 0 -0 0
-28.5706403255 15.8050858974 0 -0 0
-25.3285763264 15.8050858974 0 -0 0
-22.0865123272 15.8050858974 -5.2075717737 7.0706028439 1
-18.844448328 15.8050858974 -5.8984749681 5.5396673246 1
-15.6023843288 15.8050858974 -3.0826167822 3.1806762615 1
-12.3603203297 15.8050858974 -0.2879564396 -1.1110109203 1
-9.1182563305 15.8050858974 -0.4127521856 -7.6553466969 1
-5.8761923313 15.8050858974 -1.2014846672 -12.071825907 1
-2.6341283321 15.8050858974 -0.1372040191 -11.8418436916 1
0.607935667 15.8050858974 1.8696535362 -8.1535138766 1
3.8499996662 15.8050858974 1.9678312253 -4.6488458514 1
7.0920636654 15.8050858974 1.4155325644 -3.4968719155 1
10.3341276646 15.8050858974 1.8239194796 -5.223352404 1
13.5761916637 15.8050858974 3.6612070831 -8.0446068746 1
16.8182556629 15.8050858974 5.3248153592 -9.8704352235 1
20.0603196621 15.8050858974 5.2070838375 -8.7754097248 1
23.3023836613 15.8050858974 4.6335111876 -5.4946280337 1
26.5444476604 15.8050858974 4.536436337 -2.1850273075 1
29.7865116596 15.8050858974 0 -0 0
33.0285756588 15.8050858974 0 -0 0
36.270639658 15.8050858974 0 -0 0
39.5127036572 15.8050858974 0 -0 0
42.7547676563 15.8050858974 0 -0 0
-35.0547683239 12.5630218983 0 -0 0
-31.8127043247 12.5630218983 0 -0 0
-28.5706403255 12.5630218983 0 -0 0
-25.3285763264 12.5630218983 0 -0 0
-22.0865123272 12.5630218983 -2.4641713616 7.6460294098 1
-18.844448328 12.5630218983 -5.2213855621 5.5147076961 1
-15.6023843288 12.5630218983 -4.4316846434 1.9951814696 1
-12.3603203297 12.5630218983 -2.8096388107 -2.7260767136 1
-9.1182563305 12.5630218983 -2.3497140852 -8.1301189049 1
-5.8761923313 12.5630218983 -2.2018688066 -11.3362668864 1
-2.6341283321 12.5630218983 -0.9532287724 -11.4542447918 1
0.607935667 12.5630218983 -0.0565190115 -9.7059348943 1
3.8499996662 12.5630218983 -0.0986736928 -7.2057865398 1
7.0920636654 12.5630218983 0.7178298913 -5.6821839532 1
10.3341276646 12.5630218983 2.7968932886 -6.3268225811 1
13.5761916637 12.5630218983 4.2527596996 -8.8506328228 1
16.8182556629 12.5630218983 4.7942734906 -10.6049181274 1
20.0603196621 12.5630218983 3.8420710902 -9.3611439435 1
23.3023836613 12.5630218983 3.1730045514 -6.1067905205 1
26.5444476604 12.5630218983 3.2100895158 -2.6848823359 1
29.7865116596 12.5630218983 3.1993023813 0.7129381495 1
33.0285756588 12.5630218983 0 -0 0
36.270639658 12.5630218983 0 -0 0
39.5127036572 12.5630218983 0 -0 0
42.7547676563 12.5630218983 0 -0 0
-35.0547683239 9.3209578991 0 -0 0
-31.8127043247 9.3209578991 0 -0 0
-28.5706403255 9.3209578991 0 -0 0
-25.3285763264 9.3209578991 2.368599723 6.2744419032 1
-22.0865123272 9.3209578991 -1.2694050267 6.6672504884 1
-18.844448328 9.3209578991 -4.1977717636 5.3775360224 1
-15.6023843288 9.3209578991 -4.444870395 2.18181028 1
-12.3603203297 9.3209578991 -3.8812240467 -2.9352201876 1
-9.1182563305 9.3209578991 -4.1849577009 -8.7267604305 1
-5.8761923313 9.3209578991 -3.8550675251 -12.1090370826 1
-2.6341283321 9.3209578991 -2.6467743964 -13.0914954538 1
0.607935667 9.3209578991 -2.5027252677 -12.6031425556 1
3.8499996662 9.3209578991 -2.8672527253 -10.3166275337 1
7.0920636654 9.3209578991 -1.5137745669 -8.2344847183 1
10.3341276646 9.3209578991 1.5626433721 -7.5464143319 1
13.5761916637 9.3209578991 2.9868502408 -9.3047728169 1
16.8182556629 9.3209578991 2.9995722115 -9.9953082474 1
20.0603196621 9.3209578991 1.746835219 -8.5864685013 1
23.3023836613 9.3209578991 1.0185596127 -6.4334535538 1
26.5444476604 9.3209578991 1.4891405814 -3.836595697 1
29.7865116596 9.3209578991 1.800386974 -0.706052844 1
33.0285756588 9.3209578991 0 -0 0
36.270639658 9.3209578991 0 -0 0
39.5127036572 9.3209578991 0 -0 0
42.7547676563 9.3209578991 0 -0 0
-35.0547683239 6.0788938999 0 -0 0
-31.8127043247 6.0788938999 0 -0 0
-28.5706403255 6.0788938999 0 -0 0
-25.3285763264 6.0788938999 -0.361560739 3.3792192003 1
-22.0865123272 6.0788938999 -2.7423476957 5.2024369696 1
-18.844448328 6.0788938999 -4.4606516292 5.5923312229 1
-15.6023843288 6.0788938999 -4.7858565908 3.1737434004 1
-12.3603203297 6.0788938999 -4.7362942277 -2.3186729174 1
-9.1182563305 6.0788938999 -5.3183308801 -8.968321469 1
-5.8761923313 6.0788938999 -5.0341083339 -13.2540820827 1
-2.6341283321 6.0788938999 -4.2030385157 -14.1939281625 1
0.607935667 6.0788938999 -4.41922053 -13.5812892132 1
3.8499996662 6.0788938999 -4.4096079449 -11.3512491855 1
7.0920636654 6.0788938999 -2.8171517 -9.7061088122 1
10.3341276646 6.0788938999 0.2765680468 -8.8416428395 1
13.5761916637 6.0788938999 1.8502499191 -9.4007887613 1
16.8182556629 6.0788938999 2.1408902155 -8.915192582 1
20.0603196621 6.0788938999 1.5963105184 -7.5330631167 1
23.3023836613 6.0788938999 1.2746375086 -6.8076734599 1
26.5444476604 6.0788938999 1.6287042296 -5.637654942 1
29.7865116596 6.0788938999 1.8476625889 -2.9463962218 1
33.0285756588 6.0788938999 1.7836781778 -0.0317714963 1
36.270639658 6.0788938999 0 -0 0
39.5127036572 6.0788938999 0 -0 0
42.7547676563 6.0788938999 0 -0 0
-35.0547683239 2.8368299007 0 -0 0
-31.8127043247 2.8368299007 0 -0 0
-28.5706403255 2.8368299007 -4.0608645899 -3.0375551476 1
-25.3285763264 2.8368299007 -4.8128035932 0.7374928 1
-22.0865123272 2.8368299007 -6.4553502956 4.0121219959 1
-18.844448328 2.8368299007 -7.0823561887 5.8995812789 1
-15.6023843288 2.8368299007 -7.2952618442 3.897870643 1
-12.3603203297 2.8368299007 -7.2913492962 -1.6069774805 1
-9.1182563305 2.8368299007 -6.902993129 -8.8047849346 1
-5.8761923313 2.8368299007 -5.859131487 -13.7276978577 1
-2.6341283321 2.8368299007 -4.7550538052 -14.2654277274 1
0.607935667 2.8368299007 -4.8526926811 -12.8514561966 1
3.8499996662 2.8368299007 -4.1951029094 -10.4067809969 1
7.0920636654 2.8368299007 -2.2905990722 -9.1223420394 1
10.3341276646 2.8368299007 0.4408409769 -8.5214987066 1
13.5761916637 2.8368299007 2.3584163189 -8.1680396412 1
16.8182556629 2.8368299007 3.349097593 -6.9747463241 1
20.0603196621 2.8368299007 3.7920470598 -5.9928616403 1
23.3023836613 2.8368299007 4.0526662952 -6.4598673289 1
26.5444476604 2.8368299007 3.958024785 -6.038763274 1
29.7865116596 2.8368299007 3.4773393697 -3.2378544756 1
33.0285756588 2.8368299007 2.6650726085 0.1213009141 1
36.270639658 2.8368299007 0 -0 0
39.5127036572 2.8368299007 0 -0 0
42.7547676563 2.8368299007 0 -0 0
-35.0547683239 -0.4052340984 0 -0 0
-31.8127043247 -0.4052340984 0 -0 0
-28.5706403255 -0.4052340984 -6.61179545 -3.8597916897 1
-25.3285763264 -0.4052340984 -8.391178068 0.3125776303 1
-22.0865123272 -0.4052340984 -10.2192311162 4.7979535442 1
-18.844448328 -0.4052340984 -10.0826645317 7.1210390234 1
-15.6023843288 -0.4052340984 -9.7828174586 4.1249044071 1
-12.3603203297 -0.4052340984 -9.2972406034 -2.403108982 1
-9.1182563305 -0.4052340984 -8.1191234313 -10.1932014098 1
-5.8761923313 -0.4052340984 -6.4283410934 -14.992616951 1
-2.6341283321 -0.4052340984 -4.6186055815 -14.2889694423 1
0.607935667 -0.4052340984 -3.4313670818 -11.6770239091 1
3.8499996662 -0.4052340984 -1.4654125692 -9.1885032922 1
7.0920636654 -0.4052340984 0.9209895793 -8.1828311137 1
10.3341276646 -0.4052340984 2.917897244 -7.344458859 1
13.5761916637 -0.4052340984 4.7226471105 -5.9688416513 1
16.8182556629 -0.4052340984 5.8153428346 -4.6621925375 1
20.0603196621 -0.4052340984 6.493408113 -4.5737927461 1
23.3023836613 -0.4052340984 6.7906657424 -5.7330500963 1
26.5444476604 -0.4052340984 6.3339338891 -5.2077275751 1
29.7865116596 -0.4052340984 5.1063980777 -1.8306658923 1
33.0285756588 -0.4052340984 3.5911067116 1.7217468127 1
36.270639658 -0.4052340984 0 -0 0
39.5127036572 -0.4052340984 0 -0 0
42.7547676563 -0.4052340984 0 -0 0
-35.0547683239 -3.6472980976 0 -0 0
-31.8127043247 -3.6472980976 0 -0 0
-28.5706403255 -3.6472980976 -7.3741257435 0.0537535033 1
-25.3285763264 -3.6472980976 -9.3190666911 3.097773301 1
-22.0865123272 -3.6472980976 -10.816834625 6.4044310108 1
-18.844448328 -3.6472980976 -10.2350938744 6.8226883685 1
-15.6023843288 -3.6472980976 -9.4517636032 2.0613259646 1
-12.3603203297 -3.6472980976 -9.1695957636 -5.571591518 1
-9.1182563305 -3.6472980976 -8.6171704386 -12.9052270096 1
-5.8761923313 -3.6472980976 -6.676850392 -15.9904573907 1
-2.6341283321 -3.6472980976 -3.7012703909 -14.0066874691 1
0.607935667 -3.6472980976 -1.2413376732 -10.550950449 1
3.8499996662 -3.6472980976 1.199429885 -7.7158658852 1
7.0920636654 -3.6472980976 3.2410837317 -6.1118450083 1
10.3341276646 -3.6472980976 4.9578592413 -4.7239140538 1
13.5761916637 -3.6472980976 6.4297022422 -3.3123837138 1
16.8182556629 -3.6472980976 7.2372463484 -2.7565401178 1
20.0603196621 -3.6472980976 7.7836660723 -3.6808812392 1
23.3023836613 -3.6472980976 7.9215720659 -5.1051142257 1
26.5444476604 -3.6472980976 7.3458502019 -4.235258611 1
29.7865116596 -3.6472980976 5.7302565407 -0.3881782109 1
33.0285756588 -3.6472980976 4.0701821789 2.9906130262 1
36.270639658 -3.6472980976 0 -0 0
39.5127036572 -3.6472980976 0 -0 0
42.7547676563 -3.6472980976 0 -0 0
-35.0547683239 -6.8893620968 0 -0 0
-31.8127043247 -6.8893620968 0 -0 0
-28.5706403255 -6.8893620968 -6.9996455645 7.6392133998 1
-25.3285763264 -6.8893620968 -7.9057521833 8.475464219 1
-22.0865123272 -6.8893620968 -8.4925570837 8.2010453863 1
-18.844448328 -6.8893620968 -8.143720731 4.6275400077 1
-15.6023843288 -6.8893620968 -8.15409783 -2.1735953786 1
-12.3603203297 -6.8893620968 -9.0151718005 -10.3103423355 1
-9.1182563305 -6.8893620968 -8.7354345838 -15.8622147083 1
-5.8761923313 -6.8893620968 -6.0322057252 -16.3404634619 1
-2.6341283321 -6.8893620968 -1.9126412909 -13.4607339417 1
0.607935667 -6.8893620968 0.6737943268 -9.7209564456 1
3.8499996662 -6.8893620968 2.0780178521 -6.3014668063 1
7.0920636654 -6.8893620968 3.0255267347 -3.1198995177 1
10.3341276646 -6.8893620968 4.1689400471 -0.9623627059 1
13.5761916637 -6.8893620968 5.4276177235 -0.0638407392 1
16.8182556629 -6.8893620968 6.4104643905 -0.7985341948 1
20.0603196621 -6.8893620968 7.4680975492 -2.7476165614 1
23.3023836613 -6.8893620968 7.8952911447 -4.3390359419 1
26.5444476604 -6.8893620968 7.4365344769 -3.7928822278 1
29.7865116596 -6.8893620968 5.9517228197 -0.4504000052 1
33.0285756588 -6.8893620968 4.4781527178 2.4884360736 1
36.270639658 -6.8893620968 0 -0 0
39.5127036572 -6.8893620968 0 -0 0
42.7547676563 -6.8893620968 0 -0 0
-35.0547683239 -10.131426096 0 -0 0
-31.8127043247 -10.131426096 0 -0 0
-28.5706403255 -10.131426096 -5.6858990319 12.4822322018 1
-25.3285763264 -10.131426096 -5.0720480925 11.1629758548 1
-22.0865123272 -10.131426096 -5.2384941278 8.1514226351 1
-18.844448328 -10.131426096 -7.1978201356 2.6811370631 1
-15.6023843288 -10.131426096 -9.3459206957 -4.5071649949 1
-12.3603203297 -10.131426096 -10.0515314231 -11.5415781286 1
-9.1182563305 -10.131426096 -7.7117003109 -14.9659845708 1
-5.8761923313 -10.131426096 -3.4742734635 -13.6543359224 1
-2.6341283321 -10.131426096 0.6718232577 -10.3030486552 1
0.607935667 -10.131426096 2.1112017422 -7.2110898268 1
3.8499996662 -10.131426096 1.819979606 -3.9604403108 1
7.0920636654 -10.131426096 1.1183863511 0.2767591375 1
10.3341276646 -10.131426096 1.2065905604 3.3368010568 1
13.5761916637 -10.131426096 2.3035872037 4.1022392262 1
16.8182556629 -10.131426096 4.1978230935 2.2765589792 1
20.0603196621 -10.131426096 6.6688634558 -0.5717968232 1
23.3023836613 -10.131426096 8.0148240449 -2.611915641 1
26.5444476604 -10.131426096 7.4449187671 -3.015458823 1
29.7865116596 -10.131426096 5.8411581631 -0.9187157391 1
33.0285756588 -10.131426096 4.4448900212 1.3221570916 1
36.270639658 -10.131426096 0 -0 0
39.5127036572 -10.131426096 0 -0 0
42.7547676563 -10.131426096 0 -0 0
-35.0547683239 -13.3734900951 0 -0 0
-31.8127043247 -13.3734900951 0 -0 0
-28.5706403255 -13.3734900951 0 -0 0
-25.3285763264 -13.3734900951 -1.3785744151 10.6372547718 1
-22.0865123272 -13.3734900951 -3.1549708394 7.0305177964 1
-18.844448328 -13.3734900951 -8.7090848202 1.8946611733 1
-15.6023843288 -13.3734900951 -13.3654438628 -4.3082394972 1
-12.3603203297 -13.3734900951 -13.0380857619 -9.1098821532 1
-9.1182563305 -13.3734900951 -8.0537520555 -10.8574541075 1
-5.8761923313 -13.3734900951 -2.0041886635 -9.772274896 1
-2.6341283321 -13.3734900951 2.1946373261 -7.458439673 1
0.607935667 -13.3734900951 3.0088692685 -5.3971802863 1
3.8499996662 -13.3734900951 1.543800157 -2.426323846 1
7.0920636654 -13.3734900951 -0.4071610359 2.3618690112 1
10.3341276646 -13.3734900951 -1.2908204749 6.5305987566 1
13.5761916637 -13.3734900951 -0.3446515297 8.0686679275 1
16.8182556629 -13.3734900951 2.3324382443 6.0596889744 1
20.0603196621 -13.3734900951 5.9557374237 2.3981920281 1
23.3023836613 -13.3734900951 8.1080530764 -0.8339984168 1
26.5444476604 -13.3734900951 7.4447641734 -2.2852699693 1
29.7865116596 -13.3734900951 5.3628194312 -1.1085310056 1
33.0285756588 -13.3734900951 3.887386657 0.8155798813 1
36.270639658 -13.3734900951 0 -0 0
39.5127036572 -13.3734900951 0 -0 0
42.7547676563 -13.3734900951 0 -0 0
-35.0547683239 -16.6155540943 0 -0 0
-31.8127043247 -16.6155540943 0 -0 0
-28.5706403255 -16.6155540943 0 -0 0
-25.3285763264 -16.6155540943 1.9997413785 7.7303523976 1
-22.0865123272 -16.6155540943 -1.7891144697 6.1633162407 1
-18.844448328 -16.6155540943 -9.3742995011 2.72627841 1
-15.6023843288 -16.6155540943 -15.3139012121 -2.6674277462 1
-12.3603203297 -16.6155540943 -14.5442349666 -6.2927709133 1
-9.1182563305 -16.6155540943 -8.7512484276 -7.0103753303 1
-5.8761923313 -16.6155540943 -1.8784009101 -6.6475011491 1
-2.6341283321 -16.6155540943 2.4351957704 -5.7794710681 1
0.607935667 -16.6155540943 3.7107972248 -4.8670656637 1
3.8499996662 -16.6155540943 2.6033873251 -2.1739818627 1
7.0920636654 -16.6155540943 0.8617050266 3.3416577734 1
10.3341276646 -16.6155540943 -0.3838989936 8.9668117653 1
13.5761916637 -16.6155540943 -0.1507094883 11.6442258993 1
16.8182556629 -16.6155540943 1.6477686164 9.5126348544 1
20.0603196621 -16.6155540943 4.6409830129 4.6234559574 1
23.3023836613 -16.6155540943 6.7192048259 0.1966882112 1
26.5444476604 -16.6155540943 6.2499206926 -1.9175023857 1
29.7865116596 -16.6155540943 4.2798975286 -1.2706882748 1
33.0285756588 -16.6155540943 0 -0 0
36.270639658 -16.6155540943 0 -0 0
39.5127036572 -16.6155540943 0 -0 0
42.7547676563 -16.6155540943 0 -0 0
-35.0547683239 -19.8576180935 0 -0 0
-31.8127043247 -19.8576180935 0 -0 0
-28.5706403255 -19.8576180935 0 -0 0
-25.3285763264 -19.8576180935 0 -0 0
-22.0865123272 -19.8576180935 -0.5425522028 6.7157512279 1
-18.844448328 -19.8576180935 -7.3647921516 3.8278976904 1
-15.6023843288 -19.8576180935 -12.7428928032 -1.488582293 1
-12.3603203297 -19.8576180935 -12.1175590578 -5.0533295788 1
-9.1182563305 -19.8576180935 -7.3682276333 -5.3275720781 1
-5.8761923313 -19.8576180935 -1.5702850391 -4.8251943349 1
-2.6341283321 -19.8576180935 2.1560618314 -4.9056926394 1
0.607935667 -19.8576180935 4.4192721619 -4.6926260496 1
3.8499996662 -19.8576180935 5.0784293079 -1.9584159585 1
7.0920636654 -19.8576180935 4.4951969701 3.8189312585 1
10.3341276646 -19.8576180935 2.8492232404 9.6120796377 1
13.5761916637 -19.8576180935 1.0954463286 12.6150595523 1
16.8182556629 -19.8576180935 0.6726112475 10.8944998196 1
20.0603196621 -19.8576180935 1.8891945364 6.0436154615 1
23.3023836613 -19.8576180935 3.3697488293 0.9918192132 1
26.5444476604 -19.8576180935 3.480078576 -1.7576954232 1
29.7865116596 -19.8576180935 2.5378175742 -1.8144542416 1
33.0285756588 -19.8576180935 0 -0 0
36.270639658 -19.8576180935 0 -0 0
39.5127036572 -19.8576180935 0 -0 0
42.7547676563 -19.8576180935 0 -0 0
-35.0547683239 -23.0996820927 0 -0 0
-31.8127043247 -23.0996820927 0 -0 0
-28.5706403255 -23.0996820927 0 -0 0
-25.3285763264 -23.0996820927 0 -0 0
-22.0865123272 -23.0996820927 -0.0342182046 7.7599649327 1
-18.844448328 -23.0996820927 -4.5414805588 5.9513985354 1
-15.6023843288 -23.0996820927 -8.066398541 1.3034070252 1
-12.3603203297 -23.0996820927 -7.5115576901 -3.2222619544 1
-9.1182563305 -23.0996820927 -4.0472555173 -4.7365025668 1
-5.8761923313 -23.0996820927 -0.3212091156 -4.5228154887 1
-2.6341283321 -23.0996820927 1.7760449652 -4.4140223184 1
0.607935667 -23.0996820927 3.7919332281 -3.8573565378 1
3.8499996662 -23.0996820927 5.6617371308 -0.9655468974 1
7.0920636654 -23.0996820927 5.6905217445 4.1718000297 1
10.3341276646 -23.0996820927 3.6684687577 8.2654100918 1
13.5761916637 -23.0996820927 0.3884895495 10.054741053 1
16.8182556629 -23.0996820927 -1.4595487292 8.9127559203 1
20.0603196621 -23.0996820927 -1.4018573668 5.7461410386 1
23.3023836613 -23.0996820927 -0.3519131288 2.0783398719 1
26.5444476604 -23.0996820927 0.2804237544 -0.5306620411 1
29.7865116596 -23.0996820927 0 -0 0
33.0285756588 -23.0996820927 0 -0 0
36.270639658 -23.0996820927 0 -0 0
39.5127036572 -23.0996820927 0 -0 0
42.7547676563 -23.0996820927 0 -0 0
-35.0547683239 -26.3417460918 0 -0 0
-31.8127043247 -26.3417460918 0 -0 0
-28.5706403255 -26.3417460918 0 -0 0
-25.3285763264 -26.3417460918 0 -0 0
-22.0865123272 -26.3417460918 0 -0 0
-18.844448328 -26.3417460918 -3.5923648986 7.6379156585 1
-15.6023843288 -26.3417460918 -5.5048988495 4.6055671769 1
-12.3603203297 -26.3417460918 -4.2006552975 0.097909311 1
-9.1182563305 -26.3417460918 -1.4889408476 -3.3053732539 1
-5.8761923313 -26.3417460918 0.8607881836 -4.3551674274 1
-2.6341283321 -26.3417460918 1.5707916956 -3.9847975676 1
0.607935667 -26.3417460918 2.4622969136 -2.7765814337 1
3.8499996662 -26.3417460918 3.312387941 -0.3512625598 1
7.0920636654 -26.3417460918 2.9636977275 3.0110592447 1
10.3341276646 -26.3417460918 1.2483845169 4.9094563306 1
13.5761916637 -26.3417460918 -1.5419471467 5.6739904895 1
16.8182556629 -26.3417460918 -3.118813135 5.2916181837 1
20.0603196621 -26.3417460918 -3.0756226271 4.4884736559 1
23.3023836613 -26.3417460918 -2.0862371317 2.7659987131 1
26.5444476604 -26.3417460918 0 -0 0
29.7865116596 -26.3417460918 0 -0 0
33.0285756588 -26.3417460918 0 -0 0
36.270639658 -26.3417460918 0 -0 0
39.5127036572 -26.3417460918 0 -0 0
42.7547676563 -26.3417460918 0 -0 0
-35.0547683239 -29.583810091 0 -0 0
-31.8127043247 -29.583810091 0 -0 0
-28.5706403255 -29.583810091 0 -0 0
-25.3285763264 -29.583810091 0 -0 0
-22.0865123272 -29.583810091 0 -0 0
-18.844448328 -29.583810091 0 -0 0
-15.6023843288 -29.583810091 -5.2422309462 7.2572046307 1
-12.3603203297 -29.583810091 -3.7532138586 3.4999338964 1
-9.1182563305 -29.583810091 -1.4578374801 -0.0482804549 1
-5.8761923313 -29.583810091 0.3483939719 -2.2659113413 1
-2.6341283321 -29.583810091 1.2393193504 -2.34425394 1
0.607935667 -29.583810091 1.0569503952 -1.703334316 1
3.8499996662 -29.583810091 0.1418783258 -0.3816895801 1
7.0920636654 -29.583810091 -1.1578077328 1.2653963106 1
10.3341276646 -29.583810091 -2.1863579603 2.0259391149 1
13.5761916637 -29.583810091 -3.1355201195 2.4541076771 1
16.8182556629 -29.583810091 -3.5465514316 2.5489558658 1
20.0603196621 -29.583810091 -2.9663345759 2.7291728139 1
23.3023836613 -29.583810091 0 -0 0
26.5444476604 -29.583810091 0 -0 0
29.7865116596 -29.583810091 0 -0 0
33.0285756588 -29.583810091 0 -0 0
36.270639658 -29.583810091 0 -0 0
39.5127036572 -29.583810091 0 -0 0
42.7547676563 -29.583810091 0 -0 0
-35.0547683239 -32.8258740902 0 -0 0
-31.8127043247 -32.8258740902 0 -0 0
-28.5706403255 -32.8258740902 0 -0 0
-25.3285763264 -32.8258740902 0 -0 0
-22.0865123272 -32.8258740902 0 -0 0
-18.844448328 -32.8258740902 0 -0 0
-15.6023843288 -32.8258740902 0 -0 0
-12.3603203297 -32.8258740902 0 -0 0
-9.1182563305 -32.8258740902 -2.695814402 2.1952635512 1
-5.8761923313 -32.8258740902 -1.1621067649 1.02473732 1
-2.6341283321 -32.8258740902 0.2074255067 0.7242165416 1
0.607935667 -32.8258740902 0.2558417594 0.7445896149 1
3.8499996662 -32.8258740902 -1.2569752591 -0.0359086693 1
7.0920636654 -32.8258740902 -2.552852109 0.0695784151 1
10.3341276646 -32.8258740902 -3.3317287545 0.4336106664 1
13.5761916637 -32.8258740902 -2.9972750464 1.2113070256 1
16.8182556629 -32.8258740902 0 -0 0
20.0603196621 -32.8258740902 0 -0 0
23.3023836613 -32.8258740902 0 -0 0
26.5444476604 -32.8258740902 0 -0 0
29.7865116596 -32.8258740902 0 -0 0
33.0285756588 -32.8258740902 0 -0 0
36.270639658 -32.8258740902 0 -0 0
39.5127036572 -32.8258740902 0 -0 0
42.7547676563 -32.8258740902 0 -0 0
-35.0547683239 -36.0679380894 0 -0 0
-31.8127043247 -36.0679380894 0 -0 0
-28.5706403255 -36.0679380894 0 -0 0
-25.3285763264 -36.0679380894 0 -0 0
-22.0865123272 -36.0679380894 0 -0 0
-18.844448328 -36.0679380894 0 -0 0
-15.6023843288 -36.0679380894 0 -0 0
-12.3603203297 -36.0679380894 0 -0 0
-9.1182563305 -36.0679380894 0 -0 0
-5.8761923313 -36.0679380894 0 -0 0
-2.6341283321 -36.0679380894 0 -0 0
0.607935667 -36.0679380894 0 -0 0
3.8499996662 -36.0679380894 0 -0 0
7.0920636654 -36.0679380894 0 -0 0
10.3341276646 -36.0679380894 0 -0 0
13.5761916637 -36.0679380894 0 -0 0
16.8182556629 -36.0679380894 0 -0 0
20.0603196621 -36.0679380894 0 -0 0
23.3023836613 -36.0679380894 0 -0 0
26.5444476604 -36.0679380894 0 -0 0
29.7865116596 -36.0679380894 0 -0 0
33.0285756588 -36.0679380894 0 -0 0
36.270639658 -36.0679380894 0 -0 0
39.5127036572 -36.0679380894 0 -0 0
42.7547676563 -36.0679380894 0 -0 0
-35.0547683239 -39.3100020885 0 -0 0
-31.8127043247 -39.3100020885 0 -0 0
-28.5706403255 -39.3100020885 0 -0 0
-25.3285763264 -39.3100020885 0 -0 0
-22.0865123272 -39.3100020885 0 -0 0
-18.844448328 -39.3100020885 0 -0 0
-15.6023843288 -39.3100020885 0 -0 0
-12.3603203297 -39.3100020885 0 -0 0
-9.1182563305 -39.3100020885 0 -0 0
-5.8761923313 -39.3100020885 0 -0 0
-2.6341283321 -39.3100020885 0 -0 0
0.607935667 -39.3100020885 0 -0 0
3.8499996662 -39.3100020885 0 -0 0
7.0920636654 -39.3100020885 0 -0 0
10.3341276646 -39.3100020885 0 -0 0
13.5761916637 -39.3100020885 0 -0 0
16.8182556629 -39.3100020885 0 -0 0
20.0603196621 -39.3100020885 0 -0 0
23.3023836613 -39.3100020885 0 -0 0
26.5444476604 -39.3100020885 0 -0 0
29.7865116596 -39.3100020885 0 -0 0
33.0285756588 -39.3100020885 0 -0 0
36.270639658 -39.3100020885 0 -0 0
39.5127036572 -39.3100020885 0 -0 0
42.7547676563 -39.3100020885 0 -0 0
-35.0547683239 -42.5520660877 0 -0 0
-31.8127043247 -42.5520660877 0 -0 0
-28.5706403255 -42.5520660877 0 -0 0
-25.3285763264 -42.5520660877 0 -0 0
-22.0865123272 -42.5520660877 0 -0 0
-18.844448328 -42.5520660877 0 -0 0
-15.6023843288 -42.5520660877 0 -0 0
-12.3603203297 -42.5520660877 0 -0 0
-9.1182563305 -42.5520660877 0 -0 0
-5.8761923313 -42.5520660877 0 -0 0
-2.6341283321 -42.5520660877 0 -0 0
0.607935667 -42.5520660877 0 -0 0
3.8499996662 -42.5520660877 0 -0 0
7.0920636654 -42.5520660877 0 -0 0
10.3341276646 -42.5520660877 0 -0 0
13.5761916637 -42.5520660877 0 -0 0
16.8182556629 -42.5520660877 0 -0 0
20.0603196621 -42.5520660877 0 -0 0
23.3023836613 -42.5520660877 0 -0 0
26.5444476604 -42.5520660877 0 -0 0
29.7865116596 -42.5520660877 0 -0 0
33.0285756588 -42.5520660877 0 -0 0
36.270639658 -42.5520660877 0 -0 0
39.5127036572 -42.5520660877 0 -0 0
42.7547676563 -42.5520660877 0 -0 0
