TITLE = "B00070"
VARIABLES = "x", "y", "Vx", "Vy", "isValid"
ZONE T="Frame 0", I=25, J=25, F=POINT
-35.0547683239 35.2574698925 0 -0 0
-31.8127043247 35.2574698925 0 -0 0
-28.5706403255 35.2574698925 0 -0 0
-25.3285763264 35.2574698925 0 -0 0
-22.0865123272 35.2574698925 0 -0 0
-18.844448328 35.2574698925 0 -0 0
-15.6023843288 35.2574698925 0 -0 0
-12.3603203297 35.2574698925 0 -0 0
-9.1182563305 35.2574698925 0 -0 0
-5.8761923313 35.2574698925 0 -0 0
-2.6341283321 35.2574698925 0 -0 0
0.607935667 35.2574698925 0 -0 0
3.8499996662 35.2574698925 0 -0 0
7.0920636654 35.2574698925 0 -0 0
10.3341276646 35.2574698925 0 -0 0
13.5761916637 35.2574698925 0 -0 0
16.8182556629 35.2574698925 0 -0 0
20.0603196621 35.2574698925 0 -0 0
23.3023836613 35.2574698925 0 -0 0
26.5444476604 35.2574698925 0 -0 0
29.7865116596 35.2574698925 0 -0 0
33.0285756588 35.2574698925 0 -0 0
36.270639658 35.2574698925 0 -0 0
39.5127036572 35.2574698925 0 -0 0
42.7547676563 35.2574698925 0 -0 0
-35.0547683239 32.0154058933 0 -0 0
-31.8127043247 32.0154058933 0 -0 0
-28.5706403255 32.0154058933 0 -0 0
-25.3285763264 32.0154058933 0 -0 0
-22.0865123272 32.0154058933 0 -0 0
-18.844448328 32.0154058933 0 -0 0
-15.6023843288 32.0154058933 0 -0 0
-12.3603203297 32.0154058933 0 -0 0
-9.1182563305 32.0154058933 0 -0 0
-5.8761923313 32.0154058933 0 -0 0
-2.6341283321 32.0154058933 0 -0 0
0.607935667 32.0154058933 0 -0 0
3.8499996662 32.0154058933 0 -0 0
7.0920636654 32.0154058933 0 -0 0
10.3341276646 32.0154058933 0 -0 0
13.5761916637 32.0154058933 0 -0 0
16.8182556629 32.0154058933 0 -0 0
20.0603196621 32.0154058933 0 -0 0
23.3023836613 32.0154058933 0 -0 0
26.5444476604 32.0154058933 0 -0 0
29.7865116596 32.0154058933 0 -0 0
33.0285756588 32.0154058933 0 -0 0
36.270639658 32.0154058933 0 -0 0
39.5127036572 32.0154058933 0 -0 0
42.7547676563 32.0154058933 0 -0 0
-35.0547683239 28.7733418941 0 -0 0
-31.8127043247 28.7733418941 0 -0 0
-28.5706403255 28.7733418941 0 -0 0
-25.3285763264 28.7733418941 0 -0 0
-22.0865123272 28.7733418941 0 -0 0
-18.844448328 28.7733418941 0 -0 0
-15.6023843288 28.7733418941 0 -0 0
-12.3603203297 28.7733418941 0 -0 0
-9.1182563305 28.7733418941 0 -0 0
-5.8761923313 28.7733418941 0 -0 0
-2.6341283321 28.7733418941 0 -0 0
0.607935667 28.7733418941 0 -0 0
3.8499996662 28.7733418941 0 -0 0
7.0920636654 28.7733418941 0 -0 0
10.3341276646 28.7733418941 0 -0 0
13.5761916637 28.7733418941 0 -0 0
16.8182556629 28.7733418941 0 -0 0
20.0603196621 28.7733418941 0 -0 0
23.3023836613 28.7733418941 0 -0 0
26.5444476604 28.7733418941 0 -0 0
29.7865116596 28.7733418941 0 -0 0
33.0285756588 28.7733418941 0 -0 0
36.270639658 28.7733418941 0 -0 0
39.5127036572 28.7733418941 0 -0 0
42.7547676563 28.7733418941 0 -0 0
-35.0547683239 25.531277895 0 -0 0
-31.8127043247 25.531277895 0 -0 0
-28.5706403255 25.531277895 0 -0 0
-25.3285763264 25.531277895 0 -0 0
-22.0865123272 25.531277895 0 -0 0
-18.844448328 25.531277895 0 -0 0
-15.6023843288 25.531277895 0 -0 0
-12.3603203297 25.531277895 0 -0 0
-9.1182563305 25.531277895 6.6887166627 0.8639890573 1
-5.8761923313 25.531277895 5.8117104876 0.5218308786 1
-2.6341283321 25.531277895 5.5179614094 -0.5734673103 1
0.607935667 25.531277895 2.4808502656 -3.8387729916 1
3.8499996662 25.531277895 -1.8117882559 -8.8825884181 1
7.0920636654 25.531277895 -2.9868411826 -10.7714372323 1
10.3341276646 25.531277895 -0.794111216 -8.9718384746 1
13.5761916637 25.531277895 1.2963019069 -5.6297652307 1
16.8182556629 25.531277895 1.4874186134 -3.7090411375 1
20.0603196621 25.531277895 0 -0 0
23.3023836613 25.531277895 0 -0 0
26.5444476604 25.531277895 0 -0 0
29.7865116596 25.531277895 0 -0 0
33.0285756588 25.531277895 0 -0 0
36.270639658 25.531277895 0 -0 0
39.5127036572 25.531277895 0 -0 0
42.7547676563 25.531277895 0 -0 0
-35.0547683239 22.2892138958 0 -0 0
-31.8127043247 22.2892138958 0 -0 0
-28.5706403255 22.2892138958 0 -0 0
-25.3285763264 22.2892138958 0 -0 0
-22.0865123272 22.2892138958 0 -0 0
-18.844448328 22.2892138958 0 -0 0
-15.6023843288 22.2892138958 14.6470228378 3.1431269123 1
-12.3603203297 22.2892138958 8.9048994225 0.4929353017 1
-9.1182563305 22.2892138958 3.2508732541 -1.0726658063 1
-5.8761923313 22.2892138958 0.0181046351 -1.2192221754 1
-2.6341283321 22.2892138958 -0.275689871 -1.6278174297 1
0.607935667 22.2892138958 -1.6375590944 -2.4066989063 1
3.8499996662 22.2892138958 -4.6163467629 -4.8457166425 1
7.0920636654 22.2892138958 -5.2125157512 -6.2532529105 1
10.3341276646 22.2892138958 -2.8436406583 -6.8044420902 1
13.5761916637 22.2892138958 0.7098468048 -5.8471353818 1
16.8182556629 22.2892138958 2.2988403935 -5.0318440804 1
20.0603196621 22.2892138958 3.1245361196 -4.1367075722 1
23.3023836613 22.2892138958 0 -0 0
26.5444476604 22.2892138958 0 -0 0
29.7865116596 22.2892138958 0 -0 0
33.0285756588 22.2892138958 0 -0 0
36.270639658 22.2892138958 0 -0 0
39.5127036572 22.2892138958 0 -0 0
42.7547676563 22.2892138958 0 -0 0
-35.0547683239 19.0471498966 0 -0 0
-31.8127043247 19.0471498966 0 -0 0
-28.5706403255 19.0471498966 0 -0 0
-25.3285763264 19.0471498966 0 -0 0
-22.0865123272 19.0471498966 0 -0 0
-18.844448328 19.0471498966 10.825036543 6.3906214496 1
-15.6023843288 19.0471498966 9.0384767938 2.6389794945 1
-12.3603203297 19.0471498966 3.7323159367 -1.1459383672 1
-9.1182563305 19.0471498966 -0.9860928318 -3.3930580498 1
-5.8761923313 19.0471498966 -3.1951093303 -3.1099433241 1
-2.6341283321 19.0471498966 -1.8866674434 -2.00521496 1
0.607935667 19.0471498966 -1.7315690956 -0.7080839993 1
3.8499996662 19.0471498966 -4.0221983619 -0.6627257835 1
7.0920636654 19.0471498966 -5.4637950541 -2.0456926814 1
10.3341276646 19.0471498966 -3.7921545507 -4.7323478623 1
13.5761916637 19.0471498966 -0.1500889624 -7.2263964102 1
16.8182556629 19.0471498966 2.4741254417 -7.9394318601 1
20.0603196621 19.0471498966 3.6564877495 -7.2040612505 1
23.3023836613 19.0471498966 3.5478084109 -5.6500628944 1
26.5444476604 19.0471498966 0 -0 0
29.7865116596 19.0471498966 0 -0 0
33.0285756588 19.0471498966 0 -0 0
36.270639658 19.0471498966 0 -0 0
39.5127036572 19.0471498966 0 -0 0
42.7547676563 19.0471498966 0 -0 0
-35.0547683239 15.8050858974 0 -0 0
-31.8127043247 15.8050858974 0 -0 0
-28.5706403255 15.8050858974 0 -0 0
-25.3285763264 15.8050858974 0 -0 0
-22.0865123272 15.8050858974 2.6792849587 9.9378235635 1
-18.844448328 15.8050858974 3.0684337203 5.2011851234 1
-15.6023843288 15.8050858974 1.8903947508 0.866540381 1
-12.3603203297 15.8050858974 -1.9916064913 -2.7902545178 1
-9.1182563305 15.8050858974 -3.6303807462 -4.0134961282 1
-5.8761923313 15.8050858974 -2.5426942189 -3.229513061 1
-2.6341283321 15.8050858974 0.7914099788 -2.1464684195 1
0.607935667 15.8050858974 1.2586628813 -1.185744044 1
3.8499996662 15.8050858974 -1.3142500188 -0.4170056624 1
7.0920636654 15.8050858974 -3.3742060783 -1.0870853633 1
10.3341276646 15.8050858974 -2.7616694869 -4.7735407303 1
13.5761916637 15.8050858974 -0.3359706583 -9.0553746048 1
16.8182556629 15.8050858974 1.4063899501 -11.7997918023 1
20.0603196621 15.8050858974 2.4261112797 -10.8588466582 1
23.3023836613 15.8050858974 2.775276144 -7.5284277226 1
26.5444476604 15.8050858974 3.3636233577 -3.5614443562 1
29.7865116596 15.8050858974 0 -0 0
33.0285756588 15.8050858974 0 -0 0
36.270639658 15.8050858974 0 -0 0
39.5127036572 15.8050858974 0 -0 0
42.7547676563 15.8050858974 0 -0 0
-35.0547683239 12.5630218983 0 -0 0
-31.8127043247 12.5630218983 0 -0 0
-28.5706403255 12.5630218983 0 -0 0
-25.3285763264 12.5630218983 0 -0 0
-22.0865123272 12.5630218983 -1.7349379993 9.2674493194 1
-18.844448328 12.5630218983 -1.9781803948 4.3181443609 1
-15.6023843288 12.5630218983 -3.1137803869 -0.2780925078 1
-12.3603203297 12.5630218983 -3.9295988769 -3.4261347509 1
-9.1182563305 12.5630218983 -3.2770678202 -4.1327992514 1
-5.8761923313 12.5630218983 -0.2699956651 -3.3001086154 1
-2.6341283321 12.5630218983 3.2104035341 -2.8907660577 1
0.607935667 12.5630218983 2.899058256 -3.486125543 1
3.8499996662 12.5630218983 0.3211532943 -3.0737167772 1
7.0920636654 12.5630218983 -1.3701807648 -2.8797554871 1
10.3341276646 12.5630218983 -0.9262414609 -5.6483623642 1
13.5761916637 12.5630218983 0.0179028042 -10.1553235491 1
16.8182556629 12.5630218983 -0.1290041109 -13.3983360782 1
20.0603196621 12.5630218983 0.0764744725 -12.7509449586 1
23.3023836613 12.5630218983 1.2132639035 -8.1203819203 1
26.5444476604 12.5630218983 2.9101186469 -2.5883588291 1
29.7865116596 12.5630218983 4.3504450744 2.6242435791 1
33.0285756588 12.5630218983 0 -0 0
36.270639658 12.5630218983 0 -0 0
39.5127036572 12.5630218983 0 -0 0
42.7547676563 12.5630218983 0 -0 0
-35.0547683239 9.3209578991 0 -0 0
-31.8127043247 9.3209578991 0 -0 0
-28.5706403255 9.3209578991 0 -0 0
-25.3285763264 9.3209578991 -1.2211646356 8.2655526078 1
-22.0865123272 9.3209578991 -2.6452948868 6.7120615121 1
-18.844448328 9.3209578991 -3.2274538252 3.0057408606 1
-15.6023843288 9.3209578991 -4.0247663678 -1.2407836874 1
-12.3603203297 9.3209578991 -3.9642728445 -3.7451043344 1
-9.1182563305 9.3209578991 -3.09030993 -3.3806905574 1
-5.8761923313 9.3209578991 -0.5126110807 -3.01760381 1
-2.6341283321 9.3209578991 1.9228251478 -4.5592096127 1
0.607935667 9.3209578991 1.2775598419 -7.0587891109 1
3.8499996662 9.3209578991 -0.4637251403 -7.0844927213 1
7.0920636654 9.3209578991 -1.009204583 -5.8574484694 1
10.3341276646 9.3209578991 0.2987672576 -7.300682888 1
13.5761916637 9.3209578991 1.0561044328 -10.5508876453 1
16.8182556629 9.3209578991 0.0488580344 -13.0054616699 1
20.0603196621 9.3209578991 -0.4626794818 -11.7836246878 1
23.3023836613 9.3209578991 0.8844560342 -7.2510583251 1
26.5444476604 9.3209578991 2.9860688182 -1.7361211541 1
29.7865116596 9.3209578991 4.4785896261 3.0991570954 1
33.0285756588 9.3209578991 0 -0 0
36.270639658 9.3209578991 0 -0 0
39.5127036572 9.3209578991 0 -0 0
42.7547676563 9.3209578991 0 -0 0
-35.0547683239 6.0788938999 0 -0 0
-31.8127043247 6.0788938999 0 -0 0
-28.5706403255 6.0788938999 0 -0 0
-25.3285763264 6.0788938999 0.4798947835 2.1169955319 1
-22.0865123272 6.0788938999 -1.1127908609 2.9806000677 1
-18.844448328 6.0788938999 -2.9629335155 2.2603073214 1
-15.6023843288 6.0788938999 -4.6740274064 -1.2871574809 1
-12.3603203297 6.0788938999 -4.9561436141 -4.0752025474 1
-9.1182563305 6.0788938999 -4.4593783452 -4.0200576022 1
-5.8761923313 6.0788938999 -2.7926507194 -4.1976150563 1
-2.6341283321 6.0788938999 -1.6373099933 -6.509103596 1
0.607935667 6.0788938999 -1.9878660495 -9.3806547496 1
3.8499996662 6.0788938999 -2.4374115625 -9.6281036323 1
7.0920636654 6.0788938999 -1.2626952243 -7.9580006111 1
10.3341276646 6.0788938999 1.3213270566 -7.6049666783 1
13.5761916637 6.0788938999 2.8343523575 -9.1651856173 1
16.8182556629 6.0788938999 2.3282835399 -10.610559588 1
20.0603196621 6.0788938999 1.9199136843 -9.4365596796 1
23.3023836613 6.0788938999 3.0830096071 -5.5688800903 1
26.5444476604 6.0788938999 4.4020500665 -1.2527819062 1
29.7865116596 6.0788938999 5.0794643607 2.1393356736 1
33.0285756588 6.0788938999 4.8880807386 3.8988761056 1
36.270639658 6.0788938999 0 -0 0
39.5127036572 6.0788938999 0 -0 0
42.7547676563 6.0788938999 0 -0 0
-35.0547683239 2.8368299007 0 -0 0
-31.8127043247 2.8368299007 0 -0 0
-28.5706403255 2.8368299007 0.8383875028 -3.1310686073 1
-25.3285763264 2.8368299007 0.5539037023 -1.0116415467 1
-22.0865123272 2.8368299007 -0.9892641153 1.2824081042 1
-18.844448328 2.8368299007 -3.9122629498 1.7271482304 1
-15.6023843288 2.8368299007 -6.4437618103 -1.3390944569 1
-12.3603203297 2.8368299007 -7.2747093425 -4.9295728298 1
-9.1182563305 2.8368299007 -6.8758728126 -6.0279435299 1
-5.8761923313 2.8368299007 -5.738701219 -6.4185461361 1
-2.6341283321 2.8368299007 -5.1592087192 -7.6352344249 1
0.607935667 2.8368299007 -4.7214619932 -9.214052309 1
3.8499996662 2.8368299007 -3.6070114395 -9.3873687036 1
7.0920636654 2.8368299007 -0.7702006051 -7.7011728454 1
10.3341276646 2.8368299007 2.8114679677 -6.7125186504 1
13.5761916637 2.8368299007 4.938369873 -7.0167764738 1
16.8182556629 2.8368299007 5.1879480418 -8.0467005316 1
20.0603196621 2.8368299007 5.349620998 -7.1313170859 1
23.3023836613 2.8368299007 6.2306435886 -4.3282249541 1
26.5444476604 2.8368299007 6.5647253057 -1.5198832808 1
29.7865116596 2.8368299007 6.0121834315 0.4608737253 1
33.0285756588 2.8368299007 5.1368330994 1.3945279065 1
36.270639658 2.8368299007 0 -0 0
39.5127036572 2.8368299007 0 -0 0
42.7547676563 2.8368299007 0 -0 0
-35.0547683239 -0.4052340984 0 -0 0
-31.8127043247 -0.4052340984 0 -0 0
-28.5706403255 -0.4052340984 -2.1912462298 -3.0513505176 1
-25.3285763264 -0.4052340984 -2.6580488632 -0.9236927792 1
-22.0865123272 -0.4052340984 -3.7903293189 1.2732097818 1
-18.844448328 -0.4052340984 -5.8920430266 0.5579456697 1
-15.6023843288 -0.4052340984 -7.7372451006 -3.0132126859 1
-12.3603203297 -0.4052340984 -8.343245581 -7.371051383 1
-9.1182563305 -0.4052340984 -8.6575731277 -9.4010937215 1
-5.8761923313 -0.4052340984 -8.4616474112 -9.3742113344 1
-2.6341283321 -0.4052340984 -8.0896993071 -8.690037795 1
0.607935667 -0.4052340984 -6.3645023687 -8.1738815905 1
3.8499996662 -0.4052340984 -3.3759733374 -7.6170098863 1
7.0920636654 -0.4052340984 0.3067588928 -5.7800936698 1
10.3341276646 -0.4052340984 4.1114804242 -4.3755994547 1
13.5761916637 -0.4052340984 6.353506895 -4.1513205977 1
16.8182556629 -0.4052340984 7.2943922549 -5.0612823957 1
20.0603196621 -0.4052340984 7.7402143857 -5.2872213228 1
23.3023836613 -0.4052340984 8.1232805513 -4.13205225 1
26.5444476604 -0.4052340984 7.5149050051 -2.6098349674 1
29.7865116596 -0.4052340984 6.3094114708 -1.4335877142 1
33.0285756588 -0.4052340984 5.1879238865 -0.858526572 1
36.270639658 -0.4052340984 0 -0 0
39.5127036572 -0.4052340984 0 -0 0
42.7547676563 -0.4052340984 0 -0 0
-35.0547683239 -3.6472980976 0 -0 0
-31.8127043247 -3.6472980976 0 -0 0
-28.5706403255 -3.6472980976 -5.8196793073 -1.8069319922 1
-25.3285763264 -3.6472980976 -7.3722301596 1.0951930003 1
-22.0865123272 -3.6472980976 -8.4494254543 2.1524246533 1
-18.844448328 -3.6472980976 -8.3770478457 -1.6634148831 1
-15.6023843288 -3.6472980976 -7.9215678387 -6.9788255434 1
-12.3603203297 -3.6472980976 -7.4254121882 -11.4528824352 1
-9.1182563305 -3.6472980976 -8.2861745558 -13.4414761619 1
-5.8761923313 -3.6472980976 -8.8283773755 -12.5130869212 1
-2.6341283321 -3.6472980976 -8.3618288252 -10.089520398 1
0.607935667 -3.6472980976 -5.9019346049 -7.5495255292 1
3.8499996662 -3.6472980976 -2.3265399832 -5.8679777465 1
7.0920636654 -3.6472980976 1.0388757702 -3.1872896693 1
10.3341276646 -3.6472980976 4.2586064799 -0.9490290033 1
13.5761916637 -3.6472980976 6.3423719248 -0.4327720638 1
16.8182556629 -3.6472980976 7.5285925822 -1.4831521909 1
20.0603196621 -3.6472980976 7.9765711738 -2.778133711 1
23.3023836613 -3.6472980976 8.1427720332 -3.3288736029 1
26.5444476604 -3.6472980976 7.2783507477 -3.3372367573 1
29.7865116596 -3.6472980976 6.1673441301 -3.0641512949 1
33.0285756588 -3.6472980976 5.2277389989 -2.6674044968 1
36.270639658 -3.6472980976 0 -0 0
39.5127036572 -3.6472980976 0 -0 0
42.7547676563 -3.6472980976 0 -0 0
-35.0547683239 -6.8893620968 0 -0 0
-31.8127043247 -6.8893620968 0 -0 0
-28.5706403255 -6.8893620968 -8.4427610185 -0.8584661084 1
-25.3285763264 -6.8893620968 -11.5275704943 2.8358916514 1
-22.0865123272 -6.8893620968 -13.1155021574 2.9436564116 1
-18.844448328 -6.8893620968 -11.140259042 -4.9738273768 1
-15.6023843288 -6.8893620968 -8.0146718667 -12.6823633489 1
-12.3603203297 -6.8893620968 -5.9590056301 -16.0343849359 1
-9.1182563305 -6.8893620968 -6.0048040001 -15.6223783552 1
-5.8761923313 -6.8893620968 -6.2442544729 -13.2523972534 1
-2.6341283321 -6.8893620968 -5.5260962966 -10.7169647091 1
0.607935667 -6.8893620968 -3.6010508276 -7.6720579085 1
3.8499996662 -6.8893620968 -1.0187228116 -4.5003115442 1
7.0920636654 -6.8893620968 1.1720904352 -0.0883416867 1
10.3341276646 -6.8893620968 3.1977781844 3.2810848397 1
13.5761916637 -6.8893620968 4.7556208499 3.6081902161 1
16.8182556629 -6.8893620968 6.0708861444 1.866735581 1
20.0603196621 -6.8893620968 7.1698090941 -0.2565052175 1
23.3023836613 -6.8893620968 7.9825248411 -1.9091522148 1
26.5444476604 -6.8893620968 7.7669011152 -3.505183438 1
29.7865116596 -6.8893620968 6.8908448457 -4.637253441 1
33.0285756588 -6.8893620968 6.1278998008 -4.6856321964 1
36.270639658 -6.8893620968 0 -0 0
39.5127036572 -6.8893620968 0 -0 0
42.7547676563 -6.8893620968 0 -0 0
-35.0547683239 -10.131426096 0 -0 0
-31.8127043247 -10.131426096 0 -0 0
-28.5706403255 -10.131426096 -9.3187399912 -1.9138363723 1
-25.3285763264 -10.131426096 -12.523959203 1.0023326385 1
-22.0865123272 -10.131426096 -13.7258548115 -0.2520091313 1
-18.844448328 -10.131426096 -11.4239468512 -8.4835369063 1
-15.6023843288 -10.131426096 -7.432789808 -15.7288088393 1
-12.3603203297 -10.131426096 -4.4012191256 -17.4644281679 1
-9.1182563305 -10.131426096 -2.6217794408 -15.0410240888 1
-5.8761923313 -10.131426096 -1.7847085506 -11.3906367498 1
-2.6341283321 -10.131426096 -1.1588490509 -9.2023973968 1
0.607935667 -10.131426096 -0.7117405771 -6.9942782661 1
3.8499996662 -10.131426096 -0.0202066781 -3.7509553419 1
7.0920636654 -10.131426096 0.9127273486 1.6911451197 1
10.3341276646 -10.131426096 1.9942409242 6.0895406466 1
13.5761916637 -10.131426096 3.1581487655 6.7295776978 1
16.8182556629 -10.131426096 4.6712447206 4.8325459878 1
20.0603196621 -10.131426096 6.918744773 2.3352789027 1
23.3023836613 -10.131426096 8.8384350212 -0.2974596656 1
26.5444476604 -10.131426096 9.4324267149 -3.4545648862 1
29.7865116596 -10.131426096 8.468082372 -5.8275817001 1
33.0285756588 -10.131426096 7.5043262096 -6.3055273052 1
36.270639658 -10.131426096 0 -0 0
39.5127036572 -10.131426096 0 -0 0
42.7547676563 -10.131426096 0 -0 0
-35.0547683239 -13.3734900951 0 -0 0
-31.8127043247 -13.3734900951 0 -0 0
-28.5706403255 -13.3734900951 0 -0 0
-25.3285763264 -13.3734900951 -11.4357551493 -6.545966332 1
-22.0865123272 -13.3734900951 -11.3436934206 -6.5908534448 1
-18.844448328 -13.3734900951 -9.8378056966 -10.4541108103 1
-15.6023843288 -13.3734900951 -7.0314387156 -14.2228069817 1
-12.3603203297 -13.3734900951 -4.1734060524 -15.206049191 1
-9.1182563305 -13.3734900951 -0.8400876555 -12.2868089147 1
-5.8761923313 -13.3734900951 0.9401548897 -8.1891374478 1
-2.6341283321 -13.3734900951 1.3908146394 -6.5954997088 1
0.607935667 -13.3734900951 0.9384714947 -6.1439020557 1
3.8499996662 -13.3734900951 0.8908093955 -3.9350655138 1
7.0920636654 -13.3734900951 1.5037625142 1.455550732 1
10.3341276646 -13.3734900951 2.3473113918 6.3682814588 1
13.5761916637 -13.3734900951 3.3435965349 7.8543129566 1
16.8182556629 -13.3734900951 4.736552085 6.7467979815 1
20.0603196621 -13.3734900951 7.3872746584 4.346763511 1
23.3023836613 -13.3734900951 9.6899344511 0.7351335861 1
26.5444476604 -13.3734900951 10.6381992424 -3.6596246118 1
29.7865116596 -13.3734900951 9.5671273057 -6.605320633 1
33.0285756588 -13.3734900951 8.5296595606 -6.9850509574 1
36.270639658 -13.3734900951 0 -0 0
39.5127036572 -13.3734900951 0 -0 0
42.7547676563 -13.3734900951 0 -0 0
-35.0547683239 -16.6155540943 0 -0 0
-31.8127043247 -16.6155540943 0 -0 0
-28.5706403255 -16.6155540943 0 -0 0
-25.3285763264 -16.6155540943 -10.1832530666 -14.8711860514 1
-22.0865123272 -16.6155540943 -8.4943542349 -12.6615680869 1
-18.844448328 -16.6155540943 -7.3206043335 -10.3673427065 1
-15.6023843288 -16.6155540943 -6.4933779189 -10.5993962353 1
-12.3603203297 -16.6155540943 -4.9184807352 -12.6911920958 1
-9.1182563305 -16.6155540943 -1.7261454853 -11.7648198191 1
-5.8761923313 -16.6155540943 0.5127742796 -8.2156798497 1
-2.6341283321 -16.6155540943 1.4441666606 -5.8320153978 1
0.607935667 -16.6155540943 1.6111836658 -5.5683021757 1
3.8499996662 -16.6155540943 2.4478123639 -4.2405232496 1
7.0920636654 -16.6155540943 3.8764875024 0.6605336183 1
10.3341276646 -16.6155540943 5.2388570605 5.5024241433 1
13.5761916637 -16.6155540943 5.8705460544 7.6101069173 1
16.8182556629 -16.6155540943 6.0947581824 7.2129854107 1
20.0603196621 -16.6155540943 7.154933682 5.0672581047 1
23.3023836613 -16.6155540943 8.6366945301 1.0955279281 1
26.5444476604 -16.6155540943 9.3107119911 -3.9141503813 1
29.7865116596 -16.6155540943 8.8999977167 -6.9185424727 1
33.0285756588 -16.6155540943 0 -0 0
36.270639658 -16.6155540943 0 -0 0
39.5127036572 -16.6155540943 0 -0 0
42.7547676563 -16.6155540943 0 -0 0
-35.0547683239 -19.8576180935 0 -0 0
-31.8127043247 -19.8576180935 0 -0 0
-28.5706403255 -19.8576180935 0 -0 0
-25.3285763264 -19.8576180935 0 -0 0
-22.0865123272 -19.8576180935 -7.0480629684 -14.0211371447 1
-18.844448328 -19.8576180935 -6.2385109563 -9.8267498348 1
-15.6023843288 -19.8576180935 -6.7428769792 -9.5673567807 1
-12.3603203297 -19.8576180935 -5.9457727757 -12.742317908 1
-9.1182563305 -19.8576180935 -3.5370339578 -13.1355546452 1
-5.8761923313 -19.8576180935 -0.9750458018 -10.1770210099 1
-2.6341283321 -19.8576180935 0.8666885584 -6.6433959629 1
0.607935667 -19.8576180935 2.3381023505 -5.3285231914 1
3.8499996662 -19.8576180935 4.5141132549 -3.705579689 1
7.0920636654 -19.8576180935 6.7943439844 0.9429225539 1
10.3341276646 -19.8576180935 8.4334189723 5.5193539601 1
13.5761916637 -19.8576180935 8.4833587613 7.6108690157 1
16.8182556629 -19.8576180935 7.2658546287 7.0232090191 1
20.0603196621 -19.8576180935 6.1848349527 4.7804932176 1
23.3023836613 -19.8576180935 6.1632153925 1.2257280168 1
26.5444476604 -19.8576180935 6.446978083 -3.2427558795 1
29.7865116596 -19.8576180935 6.9994958019 -6.357333088 1
33.0285756588 -19.8576180935 0 -0 0
36.270639658 -19.8576180935 0 -0 0
39.5127036572 -19.8576180935 0 -0 0
42.7547676563 -19.8576180935 0 -0 0
-35.0547683239 -23.0996820927 0 -0 0
-31.8127043247 -23.0996820927 0 -0 0
-28.5706403255 -23.0996820927 0 -0 0
-25.3285763264 -23.0996820927 0 -0 0
-22.0865123272 -23.0996820927 -7.3866224664 -12.5800525441 1
-18.844448328 -23.0996820927 -6.2742426223 -9.9809310376 1
-15.6023843288 -23.0996820927 -5.7940179686 -10.1638419009 1
-12.3603203297 -23.0996820927 -4.2996124466 -12.6953323071 1
-9.1182563305 -23.0996820927 -2.8966834922 -13.0478638105 1
-5.8761923313 -23.0996820927 -1.1939911776 -10.5582851932 1
-2.6341283321 -23.0996820927 0.7482182631 -6.4600545321 1
0.607935667 -23.0996820927 3.1375512748 -4.1773952934 1
3.8499996662 -23.0996820927 5.7107735131 -2.399445988 1
7.0920636654 -23.0996820927 7.5418169823 1.1992109025 1
10.3341276646 -23.0996820927 8.4678891299 5.0065263501 1
13.5761916637 -23.0996820927 8.4662701237 6.99567444 1
16.8182556629 -23.0996820927 7.1898440693 6.3251329207 1
20.0603196621 -23.0996820927 5.3603761268 3.9455455746 1
23.3023836613 -23.0996820927 4.1296300815 1.2717432557 1
26.5444476604 -23.0996820927 4.0048512631 -1.7948425873 1
29.7865116596 -23.0996820927 0 -0 0
33.0285756588 -23.0996820927 0 -0 0
36.270639658 -23.0996820927 0 -0 0
39.5127036572 -23.0996820927 0 -0 0
42.7547676563 -23.0996820927 0 -0 0
-35.0547683239 -26.3417460918 0 -0 0
-31.8127043247 -26.3417460918 0 -0 0
-28.5706403255 -26.3417460918 0 -0 0
-25.3285763264 -26.3417460918 0 -0 0
-22.0865123272 -26.3417460918 0 -0 0
-18.844448328 -26.3417460918 -5.4605673076 -11.1533886327 1
-15.6023843288 -26.3417460918 -3.4313655721 -10.9918298101 1
-12.3603203297 -26.3417460918 -1.3437838984 -11.3943035181 1
-9.1182563305 -26.3417460918 -1.1557442698 -10.5809754352 1
-5.8761923313 -26.3417460918 -0.6597563474 -8.0396749747 1
-2.6341283321 -26.3417460918 1.0405076089 -4.2047263644 1
0.607935667 -26.3417460918 3.7107072464 -1.9317422124 1
3.8499996662 -26.3417460918 5.524851093 -0.8746844773 1
7.0920636654 -26.3417460918 5.4442389568 0.8688034267 1
10.3341276646 -26.3417460918 5.0192135977 3.2211091447 1
13.5761916637 -26.3417460918 5.0872091404 4.8067140525 1
16.8182556629 -26.3417460918 5.0106831682 4.4243006828 1
20.0603196621 -26.3417460918 4.2998491682 2.6885349129 1
23.3023836613 -26.3417460918 3.4804255059 1.0736529261 1
26.5444476604 -26.3417460918 0 -0 0
29.7865116596 -26.3417460918 0 -0 0
33.0285756588 -26.3417460918 0 -0 0
36.270639658 -26.3417460918 0 -0 0
39.5127036572 -26.3417460918 0 -0 0
42.7547676563 -26.3417460918 0 -0 0
-35.0547683239 -29.583810091 0 -0 0
-31.8127043247 -29.583810091 0 -0 0
-28.5706403255 -29.583810091 0 -0 0
-25.3285763264 -29.583810091 0 -0 0
-22.0865123272 -29.583810091 0 -0 0
-18.844448328 -29.583810091 0 -0 0
-15.6023843288 -29.583810091 -0.9136699321 -10.1133193663 1
-12.3603203297 -29.583810091 0.0245467741 -9.301781792 1
-9.1182563305 -29.583810091 -0.8906892231 -7.7317805772 1
-5.8761923313 -29.583810091 -1.1457322172 -5.2068151102 1
-2.6341283321 -29.583810091 0.4666087497 -2.3199031749 1
0.607935667 -29.583810091 3.1099369833 -0.618950039 1
3.8499996662 -29.583810091 4.3251502916 -0.2246932894 1
7.0920636654 -29.583810091 2.7808970726 -0.0895505253 1
10.3341276646 -29.583810091 1.1661428821 0.6277017533 1
13.5761916637 -29.583810091 0.638909831 1.6486018218 1
16.8182556629 -29.583810091 1.3475385314 2.0573001889 1
20.0603196621 -29.583810091 2.1190192897 1.6401023412 1
23.3023836613 -29.583810091 0 -0 0
26.5444476604 -29.583810091 0 -0 0
29.7865116596 -29.583810091 0 -0 0
33.0285756588 -29.583810091 0 -0 0
36.270639658 -29.583810091 0 -0 0
39.5127036572 -29.583810091 0 -0 0
42.7547676563 -29.583810091 0 -0 0
-35.0547683239 -32.8258740902 0 -0 0
-31.8127043247 -32.8258740902 0 -0 0
-28.5706403255 -32.8258740902 0 -0 0
-25.3285763264 -32.8258740902 0 -0 0
-22.0865123272 -32.8258740902 0 -0 0
-18.844448328 -32.8258740902 0 -0 0
-15.6023843288 -32.8258740902 0 -0 0
-12.3603203297 -32.8258740902 0 -0 0
-9.1182563305 -32.8258740902 -2.4881151106 -6.6061702942 1
-5.8761923313 -32.8258740902 -3.0041281952 -4.2675082965 1
-2.6341283321 -32.8258740902 -1.7172172489 -2.1522211453 1
0.607935667 -32.8258740902 0.6560031486 -1.0988430863 1
3.8499996662 -32.8258740902 2.2497863476 -0.8346983909 1
7.0920636654 -32.8258740902 1.2856609117 -0.9278055893 1
10.3341276646 -32.8258740902 -0.4796876522 -0.9930641903 1
13.5761916637 -32.8258740902 -1.9850047082 -0.6857492171 1
16.8182556629 -32.8258740902 -2.1279164262 -0.2773675103 1
20.0603196621 -32.8258740902 0 -0 0
23.3023836613 -32.8258740902 0 -0 0
26.5444476604 -32.8258740902 0 -0 0
29.7865116596 -32.8258740902 0 -0 0
33.0285756588 -32.8258740902 0 -0 0
36.270639658 -32.8258740902 0 -0 0
39.5127036572 -32.8258740902 0 -0 0
42.7547676563 -32.8258740902 0 -0 0
-35.0547683239 -36.0679380894 0 -0 0
-31.8127043247 -36.0679380894 0 -0 0
-28.5706403255 -36.0679380894 0 -0 0
-25.3285763264 -36.0679380894 0 -0 0
-22.0865123272 -36.0679380894 0 -0 0
-18.844448328 -36.0679380894 0 -0 0
-15.6023843288 -36.0679380894 0 -0 0
-12.3603203297 -36.0679380894 0 -0 0
-9.1182563305 -36.0679380894 0 -0 0
-5.8761923313 -36.0679380894 0 -0 0
-2.6341283321 -36.0679380894 0 -0 0
0.607935667 -36.0679380894 0 -0 0
3.8499996662 -36.0679380894 0 -0 0
7.0920636654 -36.0679380894 0 -0 0
10.3341276646 -36.0679380894 0 -0 0
13.5761916637 -36.0679380894 0 -0 0
16.8182556629 -36.0679380894 0 -0 0
20.0603196621 -36.0679380894 0 -0 0
23.3023836613 -36.0679380894 0 -0 0
26.5444476604 -36.0679380894 0 -0 0
29.7865116596 -36.0679380894 0 -0 0
33.0285756588 -36.0679380894 0 -0 0
36.270639658 -36.0679380894 0 -0 0
39.5127036572 -36.0679380894 0 -0 0
42.7547676563 -36.0679380894 0 -0 0
-35.0547683239 -39.3100020885 0 -0 0
-31.8127043247 -39.3100020885 0 -0 0
-28.5706403255 -39.3100020885 0 -0 0
-25.3285763264 -39.3100020885 0 -0 0
-22.0865123272 -39.3100020885 0 -0 0
-18.844448328 -39.3100020885 0 -0 0
-15.6023843288 -39.3100020885 0 -0 0
-12.3603203297 -39.3100020885 0 -0 0
-9.1182563305 -39.3100020885 0 -0 0
-5.8761923313 -39.3100020885 0 -0 0
-2.6341283321 -39.3100020885 0 -0 0
0.607935667 -39.3100020885 0 -0 0
3.8499996662 -39.3100020885 0 -0 0
7.0920636654 -39.3100020885 0 -0 0
10.3341276646 -39.3100020885 0 -0 0
13.5761916637 -39.3100020885 0 -0 0
16.8182556629 -39.3100020885 0 -0 0
20.0603196621 -39.3100020885 0 -0 0
23.3023836613 -39.3100020885 0 -0 0
26.5444476604 -39.3100020885 0 -0 0
29.7865116596 -39.3100020885 0 -0 0
33.0285756588 -39.3100020885 0 -0 0
36.270639658 -39.3100020885 0 -0 0
39.5127036572 -39.3100020885 0 -0 0
42.7547676563 -39.3100020885 0 -0 0
-35.0547683239 -42.5520660877 0 -0 0
-31.8127043247 -42.5520660877 0 -0 0
-28.5706403255 -42.5520660877 0 -0 0
-25.3285763264 -42.5520660877 0 -0 0
-22.0865123272 -42.5520660877 0 -0 0
-18.844448328 -42.5520660877 0 -0 0
-15.6023843288 -42.5520660877 0 -0 0
-12.3603203297 -42.5520660877 0 -0 0
-9.1182563305 -42.5520660877 0 -0 0
-5.8761923313 -42.5520660877 0 -0 0
-2.6341283321 -42.5520660877 0 -0 0
0.607935667 -42.5520660877 0 -0 0
3.8499996662 -42.5520660877 0 -0 0
7.0920636654 -42.5520660877 0 -0 0
10.3341276646 -42.5520660877 0 -0 0
13.5761916637 -42.5520660877 0 -0 0
16.8182556629 -42.5520660877 0 -0 0
20.0603196621 -42.5520660877 0 -0 0
23.3023836613 -42.5520660877 0 -0 0
26.5444476604 -42.5520660877 0 -0 0
29.7865116596 -42.5520660877 0 -0 0
33.0285756588 -42.5520660877 0 -0 0
36.270639658 -42.5520660877 0 -0 0
39.5127036572 -42.5520660877 0 -0 0
42.7547676563 -42.5520660877 0 -0 0
