TITLE = "B00070"
VARIABLES = "x", "y", "Vx", "Vy", "isValid"
ZONE T="Frame 0", I=25, J=25, F=POINT
-35.0547683239 35.2574698925 0 -0 0
-31.8127043247 35.2574698925 0 -0 0
-28.5706403255 35.2574698925 0 -0 0
-25.3285763264 35.2574698925 0 -0 0
-22.0865123272 35.2574698925 0 -0 0
-18.844448328 35.2574698925 0 -0 0
-15.6023843288 35.2574698925 0 -0 0
-12.3603203297 35.2574698925 0 -0 0
-9.1182563305 35.2574698925 0 -0 0
-5.8761923313 35.2574698925 0 -0 0
-2.6341283321 35.2574698925 0 -0 0
0.607935667 35.2574698925 0 -0 0
3.8499996662 35.2574698925 0 -0 0
7.0920636654 35.2574698925 0 -0 0
10.3341276646 35.2574698925 0 -0 0
13.5761916637 35.2574698925 0 -0 0
16.8182556629 35.2574698925 0 -0 0
20.0603196621 35.2574698925 0 -0 0
23.3023836613 35.2574698925 0 -0 0
26.5444476604 35.2574698925 0 -0 0
29.7865116596 35.2574698925 0 -0 0
33.0285756588 35.2574698925 0 -0 0
36.270639658 35.2574698925 0 -0 0
39.5127036572 35.2574698925 0 -0 0
42.7547676563 35.2574698925 0 -0 0
-35.0547683239 32.0154058933 0 -0 0
-31.8127043247 32.0154058933 0 -0 0
-28.5706403255 32.0154058933 0 -0 0
-25.3285763264 32.0154058933 0 -0 0
-22.0865123272 32.0154058933 0 -0 0
-18.844448328 32.0154058933 0 -0 0
-15.6023843288 32.0154058933 0 -0 0
-12.3603203297 32.0154058933 0 -0 0
-9.1182563305 32.0154058933 0 -0 0
-5.8761923313 32.0154058933 0 -0 0
-2.6341283321 32.0154058933 0 -0 0
0.607935667 32.0154058933 0 -0 0
3.8499996662 32.0154058933 0 -0 0
7.0920636654 32.0154058933 0 -0 0
10.3341276646 32.0154058933 0 -0 0
13.5761916637 32.0154058933 0 -0 0
16.8182556629 32.0154058933 0 -0 0
20.0603196621 32.0154058933 0 -0 0
23.3023836613 32.0154058933 0 -0 0
26.5444476604 32.0154058933 0 -0 0
29.7865116596 32.0154058933 0 -0 0
33.0285756588 32.0154058933 0 -0 0
36.270639658 32.0154058933 0 -0 0
39.5127036572 32.0154058933 0 -0 0
42.7547676563 32.0154058933 0 -0 0
-35.0547683239 28.7733418941 0 -0 0
-31.8127043247 28.7733418941 0 -0 0
-28.5706403255 28.7733418941 0 -0 0
-25.3285763264 28.7733418941 0 -0 0
-22.0865123272 28.7733418941 0 -0 0
-18.844448328 28.7733418941 0 -0 0
-15.6023843288 28.7733418941 0 -0 0
-12.3603203297 28.7733418941 0 -0 0
-9.1182563305 28.7733418941 0 -0 0
-5.8761923313 28.7733418941 0 -0 0
-2.6341283321 28.7733418941 0 -0 0
0.607935667 28.7733418941 0 -0 0
3.8499996662 28.7733418941 0 -0 0
7.0920636654 28.7733418941 0 -0 0
10.3341276646 28.7733418941 0 -0 0
13.5761916637 28.7733418941 0 -0 0
16.8182556629 28.7733418941 0 -0 0
20.0603196621 28.7733418941 0 -0 0
23.3023836613 28.7733418941 0 -0 0
26.5444476604 28.7733418941 0 -0 0
29.7865116596 28.7733418941 0 -0 0
33.0285756588 28.7733418941 0 -0 0
36.270639658 28.7733418941 0 -0 0
39.5127036572 28.7733418941 0 -0 0
42.7547676563 28.7733418941 0 -0 0
-35.0547683239 25.531277895 0 -0 0
-31.8127043247 25.531277895 0 -0 0
-28.5706403255 25.531277895 0 -0 0
-25.3285763264 25.531277895 0 -0 0
-22.0865123272 25.531277895 0 -0 0
-18.844448328 25.531277895 0 -0 0
-15.6023843288 25.531277895 0 -0 0
-12.3603203297 25.531277895 0 -0 0
-9.1182563305 25.531277895 0.624590556 -2.3121757568 1
-5.8761923313 25.531277895 3.5047830646 -1.7128317107 1
-2.6341283321 25.531277895 5.6550594096 -0.6777455232 1
0.607935667 25.531277895 6.1557302818 -0.3926056055 1
3.8499996662 25.531277895 4.4586872029 -1.6193964537 1
7.0920636654 25.531277895 2.3318633492 -2.671824909 1
10.3341276646 25.531277895 0.7824820443 -1.6317052185 1
13.5761916637 25.531277895 0.1103657343 0.8031384135 1
16.8182556629 25.531277895 0 -0 0
20.0603196621 25.531277895 0 -0 0
23.3023836613 25.531277895 0 -0 0
26.5444476604 25.531277895 0 -0 0
29.7865116596 25.531277895 0 -0 0
33.0285756588 25.531277895 0 -0 0
36.270639658 25.531277895 0 -0 0
39.5127036572 25.531277895 0 -0 0
42.7547676563 25.531277895 0 -0 0
-35.0547683239 22.2892138958 0 -0 0
-31.8127043247 22.2892138958 0 -0 0
-28.5706403255 22.2892138958 0 -0 0
-25.3285763264 22.2892138958 0 -0 0
-22.0865123272 22.2892138958 0 -0 0
-18.844448328 22.2892138958 0 -0 0
-15.6023843288 22.2892138958 -0.9214122208 -1.6782714238 1
-12.3603203297 22.2892138958 -1.1351951651 -1.3752828083 1
-9.1182563305 22.2892138958 0.0849352575 -1.6231426323 1
-5.8761923313 22.2892138958 2.7835662287 -1.4194682109 1
-2.6341283321 22.2892138958 5.3885592745 -1.4352646931 1
0.607935667 22.2892138958 5.5529098412 -2.0198862601 1
3.8499996662 22.2892138958 2.0555824481 -2.9936825556 1
7.0920636654 22.2892138958 -1.2100754094 -3.0840917627 1
10.3341276646 22.2892138958 -1.7214540812 -2.017054207 1
13.5761916637 22.2892138958 -0.4781366959 -0.7559136001 1
16.8182556629 22.2892138958 0.0812282273 -0.5370211393 1
20.0603196621 22.2892138958 -0.0536445357 -2.0426029219 1
23.3023836613 22.2892138958 0 -0 0
26.5444476604 22.2892138958 0 -0 0
29.7865116596 22.2892138958 0 -0 0
33.0285756588 22.2892138958 0 -0 0
36.270639658 22.2892138958 0 -0 0
39.5127036572 22.2892138958 0 -0 0
42.7547676563 22.2892138958 0 -0 0
-35.0547683239 19.0471498966 0 -0 0
-31.8127043247 19.0471498966 0 -0 0
-28.5706403255 19.0471498966 0 -0 0
-25.3285763264 19.0471498966 0 -0 0
-22.0865123272 19.0471498966 0 -0 0
-18.844448328 19.0471498966 0.0547755396 -2.7399557212 1
-15.6023843288 19.0471498966 -0.9528344378 -1.1167416044 1
-12.3603203297 19.0471498966 -1.2307566132 -0.0220124181 1
-9.1182563305 19.0471498966 -0.0233865834 -0.2928798286 1
-5.8761923313 19.0471498966 3.3833530708 -0.5266275845 1
-2.6341283321 19.0471498966 5.911847923 -0.9581585587 1
0.607935667 19.0471498966 5.7141184125 -2.1236595148 1
3.8499996662 19.0471498966 1.2854720478 -2.8830019538 1
7.0920636654 19.0471498966 -2.1291089411 -2.6169118543 1
10.3341276646 19.0471498966 -1.5206153361 -2.2477295273 1
13.5761916637 19.0471498966 0.2728320397 -2.4684226871 1
16.8182556629 19.0471498966 1.4615584467 -3.0973333734 1
20.0603196621 19.0471498966 1.5268501102 -3.7788320198 1
23.3023836613 19.0471498966 2.2858803425 -4.5675377419 1
26.5444476604 19.0471498966 0 -0 0
29.7865116596 19.0471498966 0 -0 0
33.0285756588 19.0471498966 0 -0 0
36.270639658 19.0471498966 0 -0 0
39.5127036572 19.0471498966 0 -0 0
42.7547676563 19.0471498966 0 -0 0
-35.0547683239 15.8050858974 0 -0 0
-31.8127043247 15.8050858974 0 -0 0
-28.5706403255 15.8050858974 0 -0 0
-25.3285763264 15.8050858974 0 -0 0
-22.0865123272 15.8050858974 -0.386860617 0.6783312127 1
-18.844448328 15.8050858974 -1.8410980955 0.6973783888 1
-15.6023843288 15.8050858974 -2.0182781238 1.6143593275 1
-12.3603203297 15.8050858974 -0.9286698192 2.2998597454 1
-9.1182563305 15.8050858974 0.7948218335 1.3677179852 1
-5.8761923313 15.8050858974 3.2492237519 0.7932715943 1
-2.6341283321 15.8050858974 4.3619801161 0.2210216902 1
0.607935667 15.8050858974 4.6227282802 -1.3995621643 1
3.8499996662 15.8050858974 1.8571442827 -1.9071124542 1
7.0920636654 15.8050858974 -0.1854909091 -1.1706282117 1
10.3341276646 15.8050858974 0.2580941051 -0.7730584741 1
13.5761916637 15.8050858974 1.2479615734 -1.8677639911 1
16.8182556629 15.8050858974 2.7356956395 -3.6907773466 1
20.0603196621 15.8050858974 2.9151317688 -4.1229741 1
23.3023836613 15.8050858974 3.4977309369 -4.85192394 1
26.5444476604 15.8050858974 3.6960842569 -5.3190990173 1
29.7865116596 15.8050858974 0 -0 0
33.0285756588 15.8050858974 0 -0 0
36.270639658 15.8050858974 0 -0 0
39.5127036572 15.8050858974 0 -0 0
42.7547676563 15.8050858974 0 -0 0
-35.0547683239 12.5630218983 0 -0 0
-31.8127043247 12.5630218983 0 -0 0
-28.5706403255 12.5630218983 0 -0 0
-25.3285763264 12.5630218983 0 -0 0
-22.0865123272 12.5630218983 -1.959177604 1.8982168273 1
-18.844448328 12.5630218983 -4.0374880366 2.8228284876 1
-15.6023843288 12.5630218983 -3.0499824242 4.2206042196 1
-12.3603203297 12.5630218983 -0.1398643151 4.912816629 1
-9.1182563305 12.5630218983 1.9389114931 4.2243597584 1
-5.8761923313 12.5630218983 2.1288211916 3.0196887107 1
-2.6341283321 12.5630218983 1.1337619279 1.288568148 1
0.607935667 12.5630218983 1.5357677787 -1.7378108144 1
3.8499996662 12.5630218983 1.2289165109 -2.5733789456 1
7.0920636654 12.5630218983 1.3589189794 -1.6922529403 1
10.3341276646 12.5630218983 1.5987023419 -0.6064215368 1
13.5761916637 12.5630218983 2.1262918341 -1.5902791013 1
16.8182556629 12.5630218983 2.8321300738 -3.7442733935 1
20.0603196621 12.5630218983 2.8414422278 -4.7383211558 1
23.3023836613 12.5630218983 2.9374575684 -5.7027751032 1
26.5444476604 12.5630218983 3.5714548991 -5.9643481694 1
29.7865116596 12.5630218983 4.049870626 -6.0016698553 1
33.0285756588 12.5630218983 0 -0 0
36.270639658 12.5630218983 0 -0 0
39.5127036572 12.5630218983 0 -0 0
42.7547676563 12.5630218983 0 -0 0
-35.0547683239 9.3209578991 0 -0 0
-31.8127043247 9.3209578991 0 -0 0
-28.5706403255 9.3209578991 0 -0 0
-25.3285763264 9.3209578991 -0.4373097423 0.4862258767 1
-22.0865123272 9.3209578991 -3.7310707332 1.1191378061 1
-18.844448328 9.3209578991 -5.2174651637 3.4475157779 1
-15.6023843288 9.3209578991 -2.4797573912 6.5120710695 1
-12.3603203297 9.3209578991 1.5316687823 8.0948691363 1
-9.1182563305 9.3209578991 2.9877521377 7.6704775508 1
-5.8761923313 9.3209578991 0.5586327735 5.6604895117 1
-2.6341283321 9.3209578991 -2.2889867087 2.0290524258 1
0.607935667 9.3209578991 -2.1691529246 -2.1766765328 1
3.8499996662 9.3209578991 -0.8419277578 -3.0077161569 1
7.0920636654 9.3209578991 1.134270849 -1.5109317949 1
10.3341276646 9.3209578991 1.9203130009 -0.8387328475 1
13.5761916637 9.3209578991 3.0363546313 -2.6440623647 1
16.8182556629 9.3209578991 3.1208337223 -5.3975987761 1
20.0603196621 9.3209578991 2.5785684009 -6.3020447209 1
23.3023836613 9.3209578991 1.967644475 -6.5311331917 1
26.5444476604 9.3209578991 2.8755494527 -6.1238628533 1
29.7865116596 9.3209578991 3.8952105452 -5.6495067196 1
33.0285756588 9.3209578991 0 -0 0
36.270639658 9.3209578991 0 -0 0
39.5127036572 9.3209578991 0 -0 0
42.7547676563 9.3209578991 0 -0 0
-35.0547683239 6.0788938999 0 -0 0
-31.8127043247 6.0788938999 0 -0 0
-28.5706403255 6.0788938999 0 -0 0
-25.3285763264 6.0788938999 -1.2646316457 0.4859929295 1
-22.0865123272 6.0788938999 -3.9052591327 0.6567825331 1
-18.844448328 6.0788938999 -3.6112497816 3.8753259364 1
-15.6023843288 6.0788938999 0.356054963 8.2319121833 1
-12.3603203297 6.0788938999 3.7896424038 10.3259067762 1
-9.1182563305 6.0788938999 3.6768941118 9.6073385644 1
-5.8761923313 6.0788938999 0.4026778199 6.5751748705 1
-2.6341283321 6.0788938999 -2.6499671176 2.2055641083 1
0.607935667 6.0788938999 -2.8526264144 -1.7927001669 1
3.8499996662 6.0788938999 -1.4925630796 -2.5939978742 1
7.0920636654 6.0788938999 0.5248561738 -1.7878928175 1
10.3341276646 6.0788938999 2.09094786 -2.4750637225 1
13.5761916637 6.0788938999 4.3920334847 -5.2639054596 1
16.8182556629 6.0788938999 4.7759755804 -8.0477398116 1
20.0603196621 6.0788938999 3.6339771623 -8.7251196846 1
23.3023836613 6.0788938999 2.2753352135 -7.6585225095 1
26.5444476604 6.0788938999 2.6139166022 -5.9787507422 1
29.7865116596 6.0788938999 3.6534924975 -4.6726448198 1
33.0285756588 6.0788938999 4.4689534896 -4.2822007325 1
36.270639658 6.0788938999 0 -0 0
39.5127036572 6.0788938999 0 -0 0
42.7547676563 6.0788938999 0 -0 0
-35.0547683239 2.8368299007 0 -0 0
-31.8127043247 2.8368299007 0 -0 0
-28.5706403255 2.8368299007 2.2650541316 2.646210975 1
-25.3285763264 2.8368299007 -0.3536641208 1.9397193356 1
-22.0865123272 2.8368299007 -1.687842794 2.5779521399 1
-18.844448328 2.8368299007 0.5768254196 5.0170664971 1
-15.6023843288 2.8368299007 4.5806570666 8.5066015548 1
-12.3603203297 2.8368299007 6.9592289861 9.9550432433 1
-9.1182563305 2.8368299007 5.3244439721 8.4090420894 1
-5.8761923313 2.8368299007 2.140398505 4.9172098666 1
-2.6341283321 2.8368299007 -0.1477936844 1.223503544 1
0.607935667 2.8368299007 -0.2112694009 -1.3298790749 1
3.8499996662 2.8368299007 0.5037026214 -2.0461822783 1
7.0920636654 2.8368299007 1.765607629 -2.3771544587 1
10.3341276646 2.8368299007 3.3535119665 -4.1039204322 1
13.5761916637 2.8368299007 6.0120481621 -7.0228309893 1
16.8182556629 2.8368299007 6.863181036 -9.5672517053 1
20.0603196621 2.8368299007 5.3546628043 -9.4519483909 1
23.3023836613 2.8368299007 3.7141834901 -7.589399822 1
26.5444476604 2.8368299007 2.9222687419 -5.0970964916 1
29.7865116596 2.8368299007 3.2832234859 -3.682420835 1
33.0285756588 2.8368299007 3.5091693576 -3.498015667 1
36.270639658 2.8368299007 0 -0 0
39.5127036572 2.8368299007 0 -0 0
42.7547676563 2.8368299007 0 -0 0
-35.0547683239 -0.4052340984 0 -0 0
-31.8127043247 -0.4052340984 0 -0 0
-28.5706403255 -0.4052340984 2.2391376529 0.0580484403 1
-25.3285763264 -0.4052340984 1.4993158331 0.6761582962 1
-22.0865123272 -0.4052340984 1.8516841375 1.8941545168 1
-18.844448328 -0.4052340984 5.4920295317 3.0142927279 1
-15.6023843288 -0.4052340984 8.7950262102 4.7381107031 1
-12.3603203297 -0.4052340984 10.1313228843 5.8290865727 1
-9.1182563305 -0.4052340984 7.7560711051 4.9898882081 1
-5.8761923313 -0.4052340984 4.6210618693 2.7695839573 1
-2.6341283321 -0.4052340984 2.6880958911 0.0367954362 1
0.607935667 -0.4052340984 2.6829040203 -2.0870185543 1
3.8499996662 -0.4052340984 3.1129986623 -3.7709815608 1
7.0920636654 -0.4052340984 3.9326222094 -5.3575137287 1
10.3341276646 -0.4052340984 4.6990715783 -6.3046468461 1
13.5761916637 -0.4052340984 6.5364666727 -7.7284097109 1
16.8182556629 -0.4052340984 7.344733625 -8.9238371451 1
20.0603196621 -0.4052340984 6.1009848042 -8.5897173835 1
23.3023836613 -0.4052340984 4.5709587304 -7.1356348383 1
26.5444476604 -0.4052340984 3.1151545192 -5.4568401513 1
29.7865116596 -0.4052340984 2.8174349204 -4.3295069944 1
33.0285756588 -0.4052340984 2.8304440367 -4.0882771849 1
36.270639658 -0.4052340984 0 -0 0
39.5127036572 -0.4052340984 0 -0 0
42.7547676563 -0.4052340984 0 -0 0
-35.0547683239 -3.6472980976 0 -0 0
-31.8127043247 -3.6472980976 0 -0 0
-28.5706403255 -3.6472980976 1.8284686696 -0.6939530977 1
-25.3285763264 -3.6472980976 3.0289748979 -0.9597796784 1
-22.0865123272 -3.6472980976 5.3441456048 -1.327804893 1
-18.844448328 -3.6472980976 9.8091925852 -2.4298129221 1
-15.6023843288 -3.6472980976 12.3919313915 -1.544854383 1
-12.3603203297 -3.6472980976 12.5731381014 1.2451681688 1
-9.1182563305 -3.6472980976 9.3568153212 2.7678145846 1
-5.8761923313 -3.6472980976 5.5854904537 1.4391745236 1
-2.6341283321 -3.6472980976 3.556493434 -1.4266374915 1
0.607935667 -3.6472980976 3.4041736958 -3.9444613054 1
3.8499996662 -3.6472980976 4.0955980399 -5.9222509889 1
7.0920636654 -3.6472980976 5.0561980158 -7.3698104066 1
10.3341276646 -3.6472980976 5.6096861722 -7.5302828464 1
13.5761916637 -3.6472980976 6.409682364 -7.6986866654 1
16.8182556629 -3.6472980976 6.6235542298 -7.8567997404 1
20.0603196621 -3.6472980976 5.5925347309 -7.2083433739 1
23.3023836613 -3.6472980976 4.1572102536 -6.1149284271 1
26.5444476604 -3.6472980976 2.4311570112 -5.6454619215 1
29.7865116596 -3.6472980976 1.9980349604 -5.3624456286 1
33.0285756588 -3.6472980976 2.3550797229 -5.0731368907 1
36.270639658 -3.6472980976 0 -0 0
39.5127036572 -3.6472980976 0 -0 0
42.7547676563 -3.6472980976 0 -0 0
-35.0547683239 -6.8893620968 0 -0 0
-31.8127043247 -6.8893620968 0 -0 0
-28.5706403255 -6.8893620968 1.143094463 2.7305822732 1
-25.3285763264 -6.8893620968 2.8849259201 0.4994040799 1
-22.0865123272 -6.8893620968 6.4208221653 -2.414662744 1
-18.844448328 -6.8893620968 10.9917778763 -4.4435261549 1
-15.6023843288 -6.8893620968 13.5286669827 -3.3745046977 1
-12.3603203297 -6.8893620968 13.1730411907 -0.0993135429 1
-9.1182563305 -6.8893620968 9.4515770038 1.6654525301 1
-5.8761923313 -6.8893620968 4.9497925928 -0.1391342885 1
-2.6341283321 -6.8893620968 2.6788332553 -3.1595099144 1
0.607935667 -6.8893620968 2.6775965061 -5.1425687655 1
3.8499996662 -6.8893620968 4.6396517562 -6.602095906 1
7.0920636654 -6.8893620968 6.010938228 -7.614881808 1
10.3341276646 -6.8893620968 6.5959616781 -7.946635562 1
13.5761916637 -6.8893620968 6.4979921771 -7.3973558555 1
16.8182556629 -6.8893620968 6.1916237881 -6.8401725484 1
20.0603196621 -6.8893620968 5.4468797305 -5.8219819073 1
23.3023836613 -6.8893620968 3.976277706 -5.0469181694 1
26.5444476604 -6.8893620968 2.043713007 -5.7268144164 1
29.7865116596 -6.8893620968 1.7031368468 -6.0674337541 1
33.0285756588 -6.8893620968 2.3197799831 -5.6353070509 1
36.270639658 -6.8893620968 0 -0 0
39.5127036572 -6.8893620968 0 -0 0
42.7547676563 -6.8893620968 0 -0 0
-35.0547683239 -10.131426096 0 -0 0
-31.8127043247 -10.131426096 0 -0 0
-28.5706403255 -10.131426096 1.2262355037 8.1888016897 1
-25.3285763264 -10.131426096 2.930724894 4.7563747959 1
-22.0865123272 -10.131426096 5.2986950705 1.0572423719 1
-18.844448328 -10.131426096 8.2048951307 -1.5008918127 1
-15.6023843288 -10.131426096 9.9933462366 -1.3449582969 1
-12.3603203297 -10.131426096 10.1893788401 0.3708487001 1
-9.1182563305 -10.131426096 7.386349512 0.6692595544 1
-5.8761923313 -10.131426096 3.7594942257 -2.373989516 1
-2.6341283321 -10.131426096 2.3224067165 -5.4187781067 1
0.607935667 -10.131426096 2.8213686042 -6.5358784922 1
3.8499996662 -10.131426096 5.1429467953 -6.6256949896 1
7.0920636654 -10.131426096 6.0831316527 -7.0288299477 1
10.3341276646 -10.131426096 6.4273320075 -7.6558618078 1
13.5761916637 -10.131426096 6.1036883815 -7.304524178 1
16.8182556629 -10.131426096 5.8137648923 -6.6440270191 1
20.0603196621 -10.131426096 5.5898251148 -5.3985094294 1
23.3023836613 -10.131426096 4.2642038572 -4.2689234927 1
26.5444476604 -10.131426096 2.2348037466 -4.5278485388 1
29.7865116596 -10.131426096 1.805761217 -4.8232576871 1
33.0285756588 -10.131426096 2.4801387423 -4.5704668689 1
36.270639658 -10.131426096 0 -0 0
39.5127036572 -10.131426096 0 -0 0
42.7547676563 -10.131426096 0 -0 0
-35.0547683239 -13.3734900951 0 -0 0
-31.8127043247 -13.3734900951 0 -0 0
-28.5706403255 -13.3734900951 0 -0 0
-25.3285763264 -13.3734900951 3.2146817323 7.5679801466 1
-22.0865123272 -13.3734900951 3.1126016103 5.1629298367 1
-18.844448328 -13.3734900951 3.0675674523 2.6993597901 1
-15.6023843288 -13.3734900951 3.1713342153 1.4411155496 1
-12.3603203297 -13.3734900951 4.3094463543 1.0879764659 1
-9.1182563305 -13.3734900951 3.8681007967 0.1659885007 1
-5.8761923313 -13.3734900951 2.8245398877 -3.283665829 1
-2.6341283321 -13.3734900951 3.0820240725 -6.7603569319 1
0.607935667 -13.3734900951 3.9976717164 -7.7354437222 1
3.8499996662 -13.3734900951 5.3962183031 -7.2864198118 1
7.0920636654 -13.3734900951 5.3583639938 -6.8783849595 1
10.3341276646 -13.3734900951 5.1352491184 -7.0447253155 1
13.5761916637 -13.3734900951 4.8988905186 -6.5658563757 1
16.8182556629 -13.3734900951 5.0759129338 -6.204594558 1
20.0603196621 -13.3734900951 5.6680066281 -5.5989998859 1
23.3023836613 -13.3734900951 4.5394943927 -4.6412556654 1
26.5444476604 -13.3734900951 2.713140063 -4.1738782877 1
29.7865116596 -13.3734900951 1.9842353632 -3.8862718918 1
33.0285756588 -13.3734900951 2.8070306467 -3.66173246 1
36.270639658 -13.3734900951 0 -0 0
39.5127036572 -13.3734900951 0 -0 0
42.7547676563 -13.3734900951 0 -0 0
-35.0547683239 -16.6155540943 0 -0 0
-31.8127043247 -16.6155540943 0 -0 0
-28.5706403255 -16.6155540943 0 -0 0
-25.3285763264 -16.6155540943 3.4803110703 5.8228363996 1
-22.0865123272 -16.6155540943 0.9897965877 4.9040585362 1
-18.844448328 -16.6155540943 -1.1991507408 3.3554875647 1
-15.6023843288 -16.6155540943 -3.0727055777 2.2160720986 1
-12.3603203297 -16.6155540943 -1.5822338906 1.8016472746 1
-9.1182563305 -16.6155540943 -0.0232513139 0.7605857554 1
-5.8761923313 -16.6155540943 1.8894994965 -2.9208194264 1
-2.6341283321 -16.6155540943 3.8899519454 -7.6096944663 1
0.607935667 -16.6155540943 4.9814670812 -9.2933117507 1
3.8499996662 -16.6155540943 5.1310473112 -8.0834467185 1
7.0920636654 -16.6155540943 4.0185032113 -6.2927044863 1
10.3341276646 -16.6155540943 3.1592565861 -5.4966763996 1
13.5761916637 -16.6155540943 3.1022737276 -5.1892796004 1
16.8182556629 -16.6155540943 3.9932035975 -5.4530314709 1
20.0603196621 -16.6155540943 5.1727163397 -5.7631330552 1
23.3023836613 -16.6155540943 4.3421429121 -5.2362223257 1
26.5444476604 -16.6155540943 2.8945620566 -4.4819212401 1
29.7865116596 -16.6155540943 2.0196265911 -3.7820307799 1
33.0285756588 -16.6155540943 0 -0 0
36.270639658 -16.6155540943 0 -0 0
39.5127036572 -16.6155540943 0 -0 0
42.7547676563 -16.6155540943 0 -0 0
-35.0547683239 -19.8576180935 0 -0 0
-31.8127043247 -19.8576180935 0 -0 0
-28.5706403255 -19.8576180935 0 -0 0
-25.3285763264 -19.8576180935 0 -0 0
-22.0865123272 -19.8576180935 0.2078584142 1.0555289337 1
-18.844448328 -19.8576180935 -2.3985312585 0.2887079512 1
-15.6023843288 -19.8576180935 -4.7559019567 0.798759669 1
-12.3603203297 -19.8576180935 -3.8663401803 1.8953826607 1
-9.1182563305 -19.8576180935 -2.0272983011 1.257396089 1
-5.8761923313 -19.8576180935 0.6673657822 -2.51177111 1
-2.6341283321 -19.8576180935 3.0144346401 -7.4336575856 1
0.607935667 -19.8576180935 3.9986077327 -9.0865385114 1
3.8499996662 -19.8576180935 4.013369313 -7.2519713939 1
7.0920636654 -19.8576180935 2.6580210847 -4.6927567899 1
10.3341276646 -19.8576180935 1.7538305818 -3.3052337573 1
13.5761916637 -19.8576180935 1.8513835555 -2.9008381966 1
16.8182556629 -19.8576180935 2.8260341924 -3.3446421556 1
20.0603196621 -19.8576180935 3.7636875786 -4.1052773538 1
23.3023836613 -19.8576180935 3.0944154182 -4.2186419068 1
26.5444476604 -19.8576180935 2.2874395644 -3.9902684317 1
29.7865116596 -19.8576180935 2.017197025 -3.9015552257 1
33.0285756588 -19.8576180935 0 -0 0
36.270639658 -19.8576180935 0 -0 0
39.5127036572 -19.8576180935 0 -0 0
42.7547676563 -19.8576180935 0 -0 0
-35.0547683239 -23.0996820927 0 -0 0
-31.8127043247 -23.0996820927 0 -0 0
-28.5706403255 -23.0996820927 0 -0 0
-25.3285763264 -23.0996820927 0 -0 0
-22.0865123272 -23.0996820927 -0.7148260339 -4.6737408646 1
-18.844448328 -23.0996820927 -2.5194758826 -3.952166229 1
-15.6023843288 -23.0996820927 -4.033013577 -1.6335352813 1
-12.3603203297 -23.0996820927 -3.0662491791 0.5764732813 1
-9.1182563305 -23.0996820927 -1.2835566868 -0.2766045438 1
-5.8761923313 -23.0996820927 0.4408817766 -3.5267643497 1
-2.6341283321 -23.0996820927 1.5491958378 -6.6549065474 1
0.607935667 -23.0996820927 1.6993471887 -6.8658133553 1
3.8499996662 -23.0996820927 1.6654932921 -4.878816895 1
7.0920636654 -23.0996820927 0.3844658118 -3.0384286621 1
10.3341276646 -23.0996820927 -0.1399437538 -2.0991778585 1
13.5761916637 -23.0996820927 0.7454656205 -1.5859977327 1
16.8182556629 -23.0996820927 1.7342660303 -1.3105483764 1
20.0603196621 -23.0996820927 1.9066959269 -1.4637700116 1
23.3023836613 -23.0996820927 1.2763487576 -1.9703326533 1
26.5444476604 -23.0996820927 1.2096749605 -2.6074345386 1
29.7865116596 -23.0996820927 0 -0 0
33.0285756588 -23.0996820927 0 -0 0
36.270639658 -23.0996820927 0 -0 0
39.5127036572 -23.0996820927 0 -0 0
42.7547676563 -23.0996820927 0 -0 0
-35.0547683239 -26.3417460918 0 -0 0
-31.8127043247 -26.3417460918 0 -0 0
-28.5706403255 -26.3417460918 0 -0 0
-25.3285763264 -26.3417460918 0 -0 0
-22.0865123272 -26.3417460918 0 -0 0
-18.844448328 -26.3417460918 -3.5972071221 -6.7991677895 1
-15.6023843288 -26.3417460918 -3.9729783996 -3.7640191095 1
-12.3603203297 -26.3417460918 -1.8955759027 -1.6966953942 1
-9.1182563305 -26.3417460918 0.5552596049 -2.5400359327 1
-5.8761923313 -26.3417460918 1.3627365671 -4.4553718936 1
-2.6341283321 -26.3417460918 0.9173973904 -5.0437317889 1
0.607935667 -26.3417460918 0.1223587257 -3.8430394141 1
3.8499996662 -26.3417460918 -0.6817880566 -2.484058084 1
7.0920636654 -26.3417460918 -2.1314664943 -2.1606975274 1
10.3341276646 -26.3417460918 -2.4138295385 -1.9179962097 1
13.5761916637 -26.3417460918 -0.5472894642 -1.2833205691 1
16.8182556629 -26.3417460918 0.6610424639 -0.2913918646 1
20.0603196621 -26.3417460918 0.7601584338 0.2161315902 1
23.3023836613 -26.3417460918 0.0421536104 -0.0590934242 1
26.5444476604 -26.3417460918 0 -0 0
29.7865116596 -26.3417460918 0 -0 0
33.0285756588 -26.3417460918 0 -0 0
36.270639658 -26.3417460918 0 -0 0
39.5127036572 -26.3417460918 0 -0 0
42.7547676563 -26.3417460918 0 -0 0
-35.0547683239 -29.583810091 0 -0 0
-31.8127043247 -29.583810091 0 -0 0
-28.5706403255 -29.583810091 0 -0 0
-25.3285763264 -29.583810091 0 -0 0
-22.0865123272 -29.583810091 0 -0 0
-18.844448328 -29.583810091 0 -0 0
-15.6023843288 -29.583810091 -4.7493682613 -3.8659265215 1
-12.3603203297 -29.583810091 -1.4206700859 -2.9027555203 1
-9.1182563305 -29.583810091 1.5656987104 -3.7569715109 1
-5.8761923313 -29.583810091 2.2998318159 -4.6646379555 1
-2.6341283321 -29.583810091 1.1707141138 -4.0165922284 1
0.607935667 -29.583810091 0.01246626 -2.4006117811 1
3.8499996662 -29.583810091 -1.3755163594 -1.8099009754 1
7.0920636654 -29.583810091 -2.8616079434 -2.3060048431 1
10.3341276646 -29.583810091 -3.3481549341 -2.4984481262 1
13.5761916637 -29.583810091 -1.4543355715 -1.7714907932 1
16.8182556629 -29.583810091 -0.1581392967 -0.5645194478 1
20.0603196621 -29.583810091 0.287706678 0.1412123578 1
23.3023836613 -29.583810091 0 -0 0
26.5444476604 -29.583810091 0 -0 0
29.7865116596 -29.583810091 0 -0 0
33.0285756588 -29.583810091 0 -0 0
36.270639658 -29.583810091 0 -0 0
39.5127036572 -29.583810091 0 -0 0
42.7547676563 -29.583810091 0 -0 0
-35.0547683239 -32.8258740902 0 -0 0
-31.8127043247 -32.8258740902 0 -0 0
-28.5706403255 -32.8258740902 0 -0 0
-25.3285763264 -32.8258740902 0 -0 0
-22.0865123272 -32.8258740902 0 -0 0
-18.844448328 -32.8258740902 0 -0 0
-15.6023843288 -32.8258740902 0 -0 0
-12.3603203297 -32.8258740902 0 -0 0
-9.1182563305 -32.8258740902 1.7460139402 -3.5032917793 1
-5.8761923313 -32.8258740902 3.1399408337 -4.4464335422 1
-2.6341283321 -32.8258740902 2.3604045987 -4.3376986464 1
0.607935667 -32.8258740902 0.9789557078 -3.2214868725 1
3.8499996662 -32.8258740902 -0.7356188803 -2.5411609639 1
7.0920636654 -32.8258740902 -1.9606571136 -2.6400371929 1
10.3341276646 -32.8258740902 -2.4482196819 -2.8599179811 1
13.5761916637 -32.8258740902 -1.6538370212 -2.3892749635 1
16.8182556629 -32.8258740902 -0.7524885354 -1.5067950559 1
20.0603196621 -32.8258740902 0 -0 0
23.3023836613 -32.8258740902 0 -0 0
26.5444476604 -32.8258740902 0 -0 0
29.7865116596 -32.8258740902 0 -0 0
33.0285756588 -32.8258740902 0 -0 0
36.270639658 -32.8258740902 0 -0 0
39.5127036572 -32.8258740902 0 -0 0
42.7547676563 -32.8258740902 0 -0 0
-35.0547683239 -36.0679380894 0 -0 0
-31.8127043247 -36.0679380894 0 -0 0
-28.5706403255 -36.0679380894 0 -0 0
-25.3285763264 -36.0679380894 0 -0 0
-22.0865123272 -36.0679380894 0 -0 0
-18.844448328 -36.0679380894 0 -0 0
-15.6023843288 -36.0679380894 0 -0 0
-12.3603203297 -36.0679380894 0 -0 0
-9.1182563305 -36.0679380894 0 -0 0
-5.8761923313 -36.0679380894 0 -0 0
-2.6341283321 -36.0679380894 0 -0 0
0.607935667 -36.0679380894 0 -0 0
3.8499996662 -36.0679380894 0 -0 0
7.0920636654 -36.0679380894 0 -0 0
10.3341276646 -36.0679380894 0 -0 0
13.5761916637 -36.0679380894 0 -0 0
16.8182556629 -36.0679380894 0 -0 0
20.0603196621 -36.0679380894 0 -0 0
23.3023836613 -36.0679380894 0 -0 0
26.5444476604 -36.0679380894 0 -0 0
29.7865116596 -36.0679380894 0 -0 0
33.0285756588 -36.0679380894 0 -0 0
36.270639658 -36.0679380894 0 -0 0
39.5127036572 -36.0679380894 0 -0 0
42.7547676563 -36.0679380894 0 -0 0
-35.0547683239 -39.3100020885 0 -0 0
-31.8127043247 -39.3100020885 0 -0 0
-28.5706403255 -39.3100020885 0 -0 0
-25.3285763264 -39.3100020885 0 -0 0
-22.0865123272 -39.3100020885 0 -0 0
-18.844448328 -39.3100020885 0 -0 0
-15.6023843288 -39.3100020885 0 -0 0
-12.3603203297 -39.3100020885 0 -0 0
-9.1182563305 -39.3100020885 0 -0 0
-5.8761923313 -39.3100020885 0 -0 0
-2.6341283321 -39.3100020885 0 -0 0
0.607935667 -39.3100020885 0 -0 0
3.8499996662 -39.3100020885 0 -0 0
7.0920636654 -39.3100020885 0 -0 0
10.3341276646 -39.3100020885 0 -0 0
13.5761916637 -39.3100020885 0 -0 0
16.8182556629 -39.3100020885 0 -0 0
20.0603196621 -39.3100020885 0 -0 0
23.3023836613 -39.3100020885 0 -0 0
26.5444476604 -39.3100020885 0 -0 0
29.7865116596 -39.3100020885 0 -0 0
33.0285756588 -39.3100020885 0 -0 0
36.270639658 -39.3100020885 0 -0 0
39.5127036572 -39.3100020885 0 -0 0
42.7547676563 -39.3100020885 0 -0 0
-35.0547683239 -42.5520660877 0 -0 0
-31.8127043247 -42.5520660877 0 -0 0
-28.5706403255 -42.5520660877 0 -0 0
-25.3285763264 -42.5520660877 0 -0 0
-22.0865123272 -42.5520660877 0 -0 0
-18.844448328 -42.5520660877 0 -0 0
-15.6023843288 -42.5520660877 0 -0 0
-12.3603203297 -42.5520660877 0 -0 0
-9.1182563305 -42.5520660877 0 -0 0
-5.8761923313 -42.5520660877 0 -0 0
-2.6341283321 -42.5520660877 0 -0 0
0.607935667 -42.5520660877 0 -0 0
3.8499996662 -42.5520660877 0 -0 0
7.0920636654 -42.5520660877 0 -0 0
10.3341276646 -42.5520660877 0 -0 0
13.5761916637 -42.5520660877 0 -0 0
16.8182556629 -42.5520660877 0 -0 0
20.0603196621 -42.5520660877 0 -0 0
23.3023836613 -42.5520660877 0 -0 0
26.5444476604 -42.5520660877 0 -0 0
29.7865116596 -42.5520660877 0 -0 0
33.0285756588 -42.5520660877 0 -0 0
36.270639658 -42.5520660877 0 -0 0
39.5127036572 -42.5520660877 0 -0 0
42.7547676563 -42.5520660877 0 -0 0
