TITLE = "B00070"
VARIABLES = "x", "y", "Vx", "Vy", "isValid"
ZONE T="Frame 0", I=25, J=25, F=POINT
-35.0547683239 35.2574698925 0 -0 0
-31.8127043247 35.2574698925 0 -0 0
-28.5706403255 35.2574698925 0 -0 0
-25.3285763264 35.2574698925 0 -0 0
-22.0865123272 35.2574698925 0 -0 0
-18.844448328 35.2574698925 0 -0 0
-15.6023843288 35.2574698925 0 -0 0
-12.3603203297 35.2574698925 0 -0 0
-9.1182563305 35.2574698925 0 -0 0
-5.8761923313 35.2574698925 0 -0 0
-2.6341283321 35.2574698925 0 -0 0
0.607935667 35.2574698925 0 -0 0
3.8499996662 35.2574698925 0 -0 0
7.0920636654 35.2574698925 0 -0 0
10.3341276646 35.2574698925 0 -0 0
13.5761916637 35.2574698925 0 -0 0
16.8182556629 35.2574698925 0 -0 0
20.0603196621 35.2574698925 0 -0 0
23.3023836613 35.2574698925 0 -0 0
26.5444476604 35.2574698925 0 -0 0
29.7865116596 35.2574698925 0 -0 0
33.0285756588 35.2574698925 0 -0 0
36.270639658 35.2574698925 0 -0 0
39.5127036572 35.2574698925 0 -0 0
42.7547676563 35.2574698925 0 -0 0
-35.0547683239 32.0154058933 0 -0 0
-31.8127043247 32.0154058933 0 -0 0
-28.5706403255 32.0154058933 0 -0 0
-25.3285763264 32.0154058933 0 -0 0
-22.0865123272 32.0154058933 0 -0 0
-18.844448328 32.0154058933 0 -0 0
-15.6023843288 32.0154058933 0 -0 0
-12.3603203297 32.0154058933 0 -0 0
-9.1182563305 32.0154058933 0 -0 0
-5.8761923313 32.0154058933 0 -0 0
-2.6341283321 32.0154058933 0 -0 0
0.607935667 32.0154058933 0 -0 0
3.8499996662 32.0154058933 0 -0 0
7.0920636654 32.0154058933 0 -0 0
10.3341276646 32.0154058933 0 -0 0
13.5761916637 32.0154058933 0 -0 0
16.8182556629 32.0154058933 0 -0 0
20.0603196621 32.0154058933 0 -0 0
23.3023836613 32.0154058933 0 -0 0
26.5444476604 32.0154058933 0 -0 0
29.7865116596 32.0154058933 0 -0 0
33.0285756588 32.0154058933 0 -0 0
36.270639658 32.0154058933 0 -0 0
39.5127036572 32.0154058933 0 -0 0
42.7547676563 32.0154058933 0 -0 0
-35.0547683239 28.7733418941 0 -0 0
-31.8127043247 28.7733418941 0 -0 0
-28.5706403255 28.7733418941 0 -0 0
-25.3285763264 28.7733418941 0 -0 0
-22.0865123272 28.7733418941 0 -0 0
-18.844448328 28.7733418941 0 -0 0
-15.6023843288 28.7733418941 0 -0 0
-12.3603203297 28.7733418941 0 -0 0
-9.1182563305 28.7733418941 0 -0 0
-5.8761923313 28.7733418941 0 -0 0
-2.6341283321 28.7733418941 0 -0 0
0.607935667 28.7733418941 0 -0 0
3.8499996662 28.7733418941 0 -0 0
7.0920636654 28.7733418941 0 -0 0
10.3341276646 28.7733418941 0 -0 0
13.5761916637 28.7733418941 0 -0 0
16.8182556629 28.7733418941 0 -0 0
20.0603196621 28.7733418941 0 -0 0
23.3023836613 28.7733418941 0 -0 0
26.5444476604 28.7733418941 0 -0 0
29.7865116596 28.7733418941 0 -0 0
33.0285756588 28.7733418941 0 -0 0
36.270639658 28.7733418941 0 -0 0
39.5127036572 28.7733418941 0 -0 0
42.7547676563 28.7733418941 0 -0 0
-35.0547683239 25.531277895 0 -0 0
-31.8127043247 25.531277895 0 -0 0
-28.5706403255 25.531277895 0 -0 0
-25.3285763264 25.531277895 0 -0 0
-22.0865123272 25.531277895 0 -0 0
-18.844448328 25.531277895 0 -0 0
-15.6023843288 25.531277895 0 -0 0
-12.3603203297 25.531277895 0 -0 0
-9.1182563305 25.531277895 1.7539483387 -3.7946872295 1
-5.8761923313 25.531277895 2.7248067509 -3.9762852545 1
-2.6341283321 25.531277895 3.3753498298 -3.1554388475 1
0.607935667 25.531277895 3.4371649477 -2.4171818355 1
3.8499996662 25.531277895 3.2839384815 -2.9313641025 1
7.0920636654 25.531277895 3.0064519311 -4.3192011534 1
10.3341276646 25.531277895 2.8291278771 -5.2454079666 1
13.5761916637 25.531277895 3.177622131 -4.5568508517 1
16.8182556629 25.531277895 3.8665282894 -3.1411682228 1
20.0603196621 25.531277895 0 -0 0
23.3023836613 25.531277895 0 -0 0
26.5444476604 25.531277895 0 -0 0
29.7865116596 25.531277895 0 -0 0
33.0285756588 25.531277895 0 -0 0
36.270639658 25.531277895 0 -0 0
39.5127036572 25.531277895 0 -0 0
42.7547676563 25.531277895 0 -0 0
-35.0547683239 22.2892138958 0 -0 0
-31.8127043247 22.2892138958 0 -0 0
-28.5706403255 22.2892138958 0 -0 0
-25.3285763264 22.2892138958 0 -0 0
-22.0865123272 22.2892138958 0 -0 0
-18.844448328 22.2892138958 0 -0 0
-15.6023843288 22.2892138958 3.081339271 -2.3932833777 1
-12.3603203297 22.2892138958 1.7953068212 -2.6234769516 1
-9.1182563305 22.2892138958 1.3913074067 -3.4335153901 1
-5.8761923313 22.2892138958 2.4938103166 -3.6867859921 1
-2.6341283321 22.2892138958 4.582091587 -3.0670242609 1
0.607935667 22.2892138958 6.042084622 -2.2959132291 1
3.8499996662 22.2892138958 5.5585198999 -2.3002762726 1
7.0920636654 22.2892138958 4.2233675812 -3.1751927159 1
10.3341276646 22.2892138958 2.9036918385 -4.6162202497 1
13.5761916637 22.2892138958 3.5074851322 -5.1585414302 1
16.8182556629 22.2892138958 3.9281610351 -4.3499184897 1
20.0603196621 22.2892138958 4.3467761926 -2.886077824 1
23.3023836613 22.2892138958 0 -0 0
26.5444476604 22.2892138958 0 -0 0
29.7865116596 22.2892138958 0 -0 0
33.0285756588 22.2892138958 0 -0 0
36.270639658 22.2892138958 0 -0 0
39.5127036572 22.2892138958 0 -0 0
42.7547676563 22.2892138958 0 -0 0
-35.0547683239 19.0471498966 0 -0 0
-31.8127043247 19.0471498966 0 -0 0
-28.5706403255 19.0471498966 0 -0 0
-25.3285763264 19.0471498966 0 -0 0
-22.0865123272 19.0471498966 0 -0 0
-18.844448328 19.0471498966 6.2300179674 -0.8280243685 1
-15.6023843288 19.0471498966 4.0457717806 -1.0218734122 1
-12.3603203297 19.0471498966 1.4876505039 -1.8663211673 1
-9.1182563305 19.0471498966 0.2454818332 -2.5474887358 1
-5.8761923313 19.0471498966 1.9171717606 -2.7033792251 1
-2.6341283321 19.0471498966 4.8713405406 -2.2560324445 1
0.607935667 19.0471498966 6.8940502485 -1.8648653601 1
3.8499996662 19.0471498966 6.215302584 -1.5721208387 1
7.0920636654 19.0471498966 4.3496213801 -1.5297728965 1
10.3341276646 19.0471498966 3.091074444 -2.8951740905 1
13.5761916637 19.0471498966 3.7725510487 -4.9320013391 1
16.8182556629 19.0471498966 3.9119344383 -5.5160006063 1
20.0603196621 19.0471498966 3.5245151932 -4.8334484887 1
23.3023836613 19.0471498966 2.6780270736 -4.0034931337 1
26.5444476604 19.0471498966 0 -0 0
29.7865116596 19.0471498966 0 -0 0
33.0285756588 19.0471498966 0 -0 0
36.270639658 19.0471498966 0 -0 0
39.5127036572 19.0471498966 0 -0 0
42.7547676563 19.0471498966 0 -0 0
-35.0547683239 15.8050858974 0 -0 0
-31.8127043247 15.8050858974 0 -0 0
-28.5706403255 15.8050858974 0 -0 0
-25.3285763264 15.8050858974 0 -0 0
-22.0865123272 15.8050858974 7.3191139541 0.4352641316 1
-18.844448328 15.8050858974 5.6429805726 0.2574084355 1
-15.6023843288 15.8050858974 2.645207022 -0.4956916809 1
-12.3603203297 15.8050858974 0.2613835229 -1.1972398334 1
-9.1182563305 15.8050858974 0.5687200095 -1.4751305316 1
-5.8761923313 15.8050858974 2.9616194695 -1.2056973442 1
-2.6341283321 15.8050858974 5.374491252 -0.5097446441 1
0.607935667 15.8050858974 6.1737102484 -0.2935046383 1
3.8499996662 15.8050858974 5.1116071592 0.6847038983 1
7.0920636654 15.8050858974 3.5664133948 1.4594199515 1
10.3341276646 15.8050858974 3.1688628304 0.2562991052 1
13.5761916637 15.8050858974 4.1042791378 -2.867519037 1
16.8182556629 15.8050858974 4.1742605447 -5.0183826568 1
20.0603196621 15.8050858974 3.3279825758 -4.989145132 1
23.3023836613 15.8050858974 2.457659104 -4.0571256578 1
26.5444476604 15.8050858974 2.5632304157 -3.7594483308 1
29.7865116596 15.8050858974 0 -0 0
33.0285756588 15.8050858974 0 -0 0
36.270639658 15.8050858974 0 -0 0
39.5127036572 15.8050858974 0 -0 0
42.7547676563 15.8050858974 0 -0 0
-35.0547683239 12.5630218983 0 -0 0
-31.8127043247 12.5630218983 0 -0 0
-28.5706403255 12.5630218983 0 -0 0
-25.3285763264 12.5630218983 0 -0 0
-22.0865123272 12.5630218983 6.7102075961 0.7134024588 1
-18.844448328 12.5630218983 3.8038411666 0.1476820324 1
-15.6023843288 12.5630218983 0.4573546061 -0.7821988239 1
-12.3603203297 12.5630218983 0.0610365826 -1.1872105701 1
-9.1182563305 12.5630218983 3.2065193686 -1.0195064988 1
-5.8761923313 12.5630218983 6.3487815226 0.2391778581 1
-2.6341283321 12.5630218983 7.125758357 1.9994563464 1
0.607935667 12.5630218983 5.919122883 2.6616473929 1
3.8499996662 12.5630218983 4.148771916 3.2727992841 1
7.0920636654 12.5630218983 2.9100171948 3.2069185342 1
10.3341276646 12.5630218983 2.9536470265 1.3857903457 1
13.5761916637 12.5630218983 3.8032828782 -1.4541616537 1
16.8182556629 12.5630218983 4.135592807 -3.6457220528 1
20.0603196621 12.5630218983 3.5871567229 -3.7730106025 1
23.3023836613 12.5630218983 2.9368627451 -3.6420247885 1
26.5444476604 12.5630218983 2.8043642081 -3.9705372088 1
29.7865116596 12.5630218983 2.9987113785 -4.6645383151 1
33.0285756588 12.5630218983 0 -0 0
36.270639658 12.5630218983 0 -0 0
39.5127036572 12.5630218983 0 -0 0
42.7547676563 12.5630218983 0 -0 0
-35.0547683239 9.3209578991 0 -0 0
-31.8127043247 9.3209578991 0 -0 0
-28.5706403255 9.3209578991 0 -0 0
-25.3285763264 9.3209578991 7.0056336531 3.4984238908 1
-22.0865123272 9.3209578991 5.7995960216 0.8866589938 1
-18.844448328 9.3209578991 2.9719105154 -0.9266107344 1
-15.6023843288 9.3209578991 0.7248617134 -1.7136255129 1
-12.3603203297 9.3209578991 2.5958677931 -1.2082009613 1
-9.1182563305 9.3209578991 7.2428823741 -0.3054255225 1
-5.8761923313 9.3209578991 10.0867787761 1.957786865 1
-2.6341283321 9.3209578991 9.4572860991 4.8199251672 1
0.607935667 9.3209578991 6.9886144619 5.1839225679 1
3.8499996662 9.3209578991 4.5081227508 4.1533387696 1
7.0920636654 9.3209578991 3.0926439319 2.1352797038 1
10.3341276646 9.3209578991 2.6686041073 -0.4144741913 1
13.5761916637 9.3209578991 3.1637120235 -2.358991818 1
16.8182556629 9.3209578991 3.7323739094 -3.3104512931 1
20.0603196621 9.3209578991 3.8753386179 -2.8326001955 1
23.3023836613 9.3209578991 3.6592662081 -2.9956922731 1
26.5444476604 9.3209578991 3.3170752689 -4.2581898017 1
29.7865116596 9.3209578991 3.2643129379 -5.8945467192 1
33.0285756588 9.3209578991 0 -0 0
36.270639658 9.3209578991 0 -0 0
39.5127036572 9.3209578991 0 -0 0
42.7547676563 9.3209578991 0 -0 0
-35.0547683239 6.0788938999 0 -0 0
-31.8127043247 6.0788938999 0 -0 0
-28.5706403255 6.0788938999 0 -0 0
-25.3285763264 6.0788938999 6.9552717509 4.2214261023 1
-22.0865123272 6.0788938999 6.3168748418 0.8679596534 1
-18.844448328 6.0788938999 4.6992476098 -1.2991363755 1
-15.6023843288 6.0788938999 3.9879021222 -1.7771485586 1
-12.3603203297 6.0788938999 7.0074126878 -0.6314979031 1
-9.1182563305 6.0788938999 10.8961713635 0.9430449154 1
-5.8761923313 6.0788938999 12.2867968371 3.5570496088 1
-2.6341283321 6.0788938999 10.0361686787 6.3926492835 1
0.607935667 6.0788938999 7.1146209713 5.7547705047 1
3.8499996662 6.0788938999 5.095866385 2.6639276493 1
7.0920636654 6.0788938999 3.7977304901 -1.1039812117 1
10.3341276646 6.0788938999 2.8211925728 -3.9067769887 1
13.5761916637 6.0788938999 2.449660996 -4.5740826092 1
16.8182556629 6.0788938999 2.6505854923 -4.0838232572 1
20.0603196621 6.0788938999 3.3247104441 -3.1207518964 1
23.3023836613 6.0788938999 3.4016594353 -3.2945411303 1
26.5444476604 6.0788938999 2.8191719854 -4.7682501248 1
29.7865116596 6.0788938999 2.3005726274 -6.5990855569 1
33.0285756588 6.0788938999 2.190903829 -8.1282468724 1
36.270639658 6.0788938999 0 -0 0
39.5127036572 6.0788938999 0 -0 0
42.7547676563 6.0788938999 0 -0 0
-35.0547683239 2.8368299007 0 -0 0
-31.8127043247 2.8368299007 0 -0 0
-28.5706403255 2.8368299007 6.7440684373 1.6626336114 1
-25.3285763264 2.8368299007 7.0727254872 1.9444264406 1
-22.0865123272 2.8368299007 7.2920969014 -0.0039249612 1
-18.844448328 2.8368299007 6.8973438179 -1.8303157921 1
-15.6023843288 2.8368299007 7.225393967 -1.8401711375 1
-12.3603203297 2.8368299007 10.4594998484 0.1550466971 1
-9.1182563305 2.8368299007 12.6604750615 2.5331867092 1
-5.8761923313 2.8368299007 11.8984140991 4.1402520545 1
-2.6341283321 2.8368299007 8.1081859303 5.1893828641 1
0.607935667 2.8368299007 5.7710263897 3.6442512995 1
3.8499996662 2.8368299007 5.5733095608 0.5438690796 1
7.0920636654 2.8368299007 4.8685128657 -2.925921017 1
10.3341276646 2.8368299007 3.3220135095 -4.9177270911 1
13.5761916637 2.8368299007 2.0768304702 -4.9722965373 1
16.8182556629 2.8368299007 1.8675793544 -3.8392174484 1
20.0603196621 2.8368299007 2.62856888 -2.6711162542 1
23.3023836613 2.8368299007 2.2258801903 -2.5789334473 1
26.5444476604 2.8368299007 0.7798433842 -3.7350771847 1
29.7865116596 2.8368299007 -0.1030388216 -5.6964627303 1
33.0285756588 2.8368299007 0.1822595017 -7.3355582501 1
36.270639658 2.8368299007 0 -0 0
39.5127036572 2.8368299007 0 -0 0
42.7547676563 2.8368299007 0 -0 0
-35.0547683239 -0.4052340984 0 -0 0
-31.8127043247 -0.4052340984 0 -0 0
-28.5706403255 -0.4052340984 6.7000738613 -1.9538039648 1
-25.3285763264 -0.4052340984 7.295461125 -0.9824490865 1
-22.0865123272 -0.4052340984 7.9108857796 -1.2690828559 1
-18.844448328 -0.4052340984 8.3971148267 -1.8331350126 1
-15.6023843288 -0.4052340984 9.0008332391 -1.1237198321 1
-12.3603203297 -0.4052340984 11.8697732092 1.4617409699 1
-9.1182563305 -0.4052340984 12.2806215452 3.8116825674 1
-5.8761923313 -0.4052340984 9.2196134533 3.7693713109 1
-2.6341283321 -0.4052340984 5.1866859295 2.9758568807 1
0.607935667 -0.4052340984 4.3878274504 1.7475867494 1
3.8499996662 -0.4052340984 6.3641116574 0.3033943484 1
7.0920636654 -0.4052340984 6.4690789367 -2.3102690011 1
10.3341276646 -0.4052340984 4.725135706 -4.4309956146 1
13.5761916637 -0.4052340984 3.2464625039 -4.6659221094 1
16.8182556629 -0.4052340984 2.640118113 -3.052382853 1
20.0603196621 -0.4052340984 2.7672436147 -1.4164408021 1
23.3023836613 -0.4052340984 1.3682826144 -1.5165337013 1
26.5444476604 -0.4052340984 -0.9873639268 -2.7220935115 1
29.7865116596 -0.4052340984 -2.0982717343 -4.7718746214 1
33.0285756588 -0.4052340984 -1.382874655 -6.5499525535 1
36.270639658 -0.4052340984 0 -0 0
39.5127036572 -0.4052340984 0 -0 0
42.7547676563 -0.4052340984 0 -0 0
-35.0547683239 -3.6472980976 0 -0 0
-31.8127043247 -3.6472980976 0 -0 0
-28.5706403255 -3.6472980976 5.5704236113 -2.1676069881 1
-25.3285763264 -3.6472980976 6.0689772751 -1.0335809375 1
-22.0865123272 -3.6472980976 6.483031014 -0.439859745 1
-18.844448328 -3.6472980976 7.6726309921 -0.9391177988 1
-15.6023843288 -3.6472980976 8.5965986128 -0.0897587889 1
-12.3603203297 -3.6472980976 10.1452918702 2.3617894498 1
-9.1182563305 -3.6472980976 8.504257287 3.9262859832 1
-5.8761923313 -3.6472980976 4.3825498283 2.675268845 1
-2.6341283321 -3.6472980976 1.7562719236 0.8805332202 1
0.607935667 -3.6472980976 2.7864410064 0.2113810623 1
3.8499996662 -3.6472980976 5.9619984666 -0.431453715 1
7.0920636654 -3.6472980976 6.7083573033 -2.7156950855 1
10.3341276646 -3.6472980976 5.5498415195 -4.9199107265 1
13.5761916637 -3.6472980976 4.6244481346 -4.9442999889 1
16.8182556629 -3.6472980976 4.1848266586 -2.7097390027 1
20.0603196621 -3.6472980976 3.7588673968 -0.8787425607 1
23.3023836613 -3.6472980976 1.7597653778 -1.3165989667 1
26.5444476604 -3.6472980976 -0.5542139464 -2.914779706 1
29.7865116596 -3.6472980976 -1.5155868151 -5.3173133398 1
33.0285756588 -3.6472980976 -0.7208795681 -7.1493719338 1
36.270639658 -3.6472980976 0 -0 0
39.5127036572 -3.6472980976 0 -0 0
42.7547676563 -3.6472980976 0 -0 0
-35.0547683239 -6.8893620968 0 -0 0
-31.8127043247 -6.8893620968 0 -0 0
-28.5706403255 -6.8893620968 3.5940518415 0.4586700486 1
-25.3285763264 -6.8893620968 3.2828134503 1.3443636246 1
-22.0865123272 -6.8893620968 3.2568909328 1.1458825082 1
-18.844448328 -6.8893620968 4.4933225221 -0.2836793548 1
-15.6023843288 -6.8893620968 5.2906199677 -0.1970296118 1
-12.3603203297 -6.8893620968 5.2554330027 1.4000280589 1
-9.1182563305 -6.8893620968 2.2224318762 2.1541745508 1
-5.8761923313 -6.8893620968 -0.8230609158 0.3621485044 1
-2.6341283321 -6.8893620968 -1.2409533026 -1.9615851284 1
0.607935667 -6.8893620968 1.1115090471 -2.982508937 1
3.8499996662 -6.8893620968 4.5714158687 -3.8519391172 1
7.0920636654 -6.8893620968 5.8174087131 -5.6321149335 1
10.3341276646 -6.8893620968 5.9981178245 -6.6978364805 1
13.5761916637 -6.8893620968 6.13306963 -5.6959131982 1
16.8182556629 -6.8893620968 6.2271785168 -3.1486174025 1
20.0603196621 -6.8893620968 5.3675134018 -1.7806848884 1
23.3023836613 -6.8893620968 3.2743385779 -2.7070399545 1
26.5444476604 -6.8893620968 1.6495958107 -4.8721735951 1
29.7865116596 -6.8893620968 1.1801271916 -7.2438612659 1
33.0285756588 -6.8893620968 1.5966346518 -8.7077170286 1
36.270639658 -6.8893620968 0 -0 0
39.5127036572 -6.8893620968 0 -0 0
42.7547676563 -6.8893620968 0 -0 0
-35.0547683239 -10.131426096 0 -0 0
-31.8127043247 -10.131426096 0 -0 0
-28.5706403255 -10.131426096 1.8267749331 2.9253086812 1
-25.3285763264 -10.131426096 0.4795151685 3.0264047784 1
-22.0865123272 -10.131426096 0.083079058 1.9249056704 1
-18.844448328 -10.131426096 0.4432608054 -0.6963735301 1
-15.6023843288 -10.131426096 1.2214616698 -2.2720543255 1
-12.3603203297 -10.131426096 0.6252776599 -2.6168584108 1
-9.1182563305 -10.131426096 -2.2455887676 -2.3193513782 1
-5.8761923313 -10.131426096 -3.8571503122 -3.0558741937 1
-2.6341283321 -10.131426096 -3.4564242372 -4.656805311 1
0.607935667 -10.131426096 -0.4508487646 -5.8612124625 1
3.8499996662 -10.131426096 2.971255606 -7.1721129018 1
7.0920636654 -10.131426096 4.865663451 -7.8485676284 1
10.3341276646 -10.131426096 6.1012082403 -7.3229981196 1
13.5761916637 -10.131426096 7.1966178076 -5.3273208634 1
16.8182556629 -10.131426096 7.6524951686 -2.9421814311 1
20.0603196621 -10.131426096 6.6113262341 -2.1774387821 1
23.3023836613 -10.131426096 4.5122560175 -3.6971244427 1
26.5444476604 -10.131426096 3.6149902233 -6.5458364975 1
29.7865116596 -10.131426096 3.5297272941 -8.8150956066 1
33.0285756588 -10.131426096 3.7015481763 -9.6125343605 1
36.270639658 -10.131426096 0 -0 0
39.5127036572 -10.131426096 0 -0 0
42.7547676563 -10.131426096 0 -0 0
-35.0547683239 -13.3734900951 0 -0 0
-31.8127043247 -13.3734900951 0 -0 0
-28.5706403255 -13.3734900951 0 -0 0
-25.3285763264 -13.3734900951 -1.2975511867 2.1627973742 1
-22.0865123272 -13.3734900951 -2.0309806193 0.6575963389 1
-18.844448328 -13.3734900951 -1.6949583292 -1.5914042835 1
-15.6023843288 -13.3734900951 -0.0123052253 -3.547552969 1
-12.3603203297 -13.3734900951 0.0298086622 -4.8841675867 1
-9.1182563305 -13.3734900951 -2.6743349423 -4.8354618294 1
-5.8761923313 -13.3734900951 -4.8190622206 -4.3107066549 1
-2.6341283321 -13.3734900951 -4.7823244881 -4.830008176 1
0.607935667 -13.3734900951 -1.6412113695 -6.1169079505 1
3.8499996662 -13.3734900951 1.7433654671 -7.3769470777 1
7.0920636654 -13.3734900951 3.9837881797 -6.9663892086 1
10.3341276646 -13.3734900951 5.5858594253 -5.4458815144 1
13.5761916637 -13.3734900951 7.1847593874 -3.6803640147 1
16.8182556629 -13.3734900951 7.7051343078 -2.603316369 1
20.0603196621 -13.3734900951 6.7614131206 -2.7307250912 1
23.3023836613 -13.3734900951 4.7558074493 -4.249242694 1
26.5444476604 -13.3734900951 4.2052586859 -6.6425843462 1
29.7865116596 -13.3734900951 4.2209734931 -8.2678189749 1
33.0285756588 -13.3734900951 4.4474707086 -8.8292107319 1
36.270639658 -13.3734900951 0 -0 0
39.5127036572 -13.3734900951 0 -0 0
42.7547676563 -13.3734900951 0 -0 0
-35.0547683239 -16.6155540943 0 -0 0
-31.8127043247 -16.6155540943 0 -0 0
-28.5706403255 -16.6155540943 0 -0 0
-25.3285763264 -16.6155540943 -2.0387483465 1.1904280506 1
-22.0865123272 -16.6155540943 -2.4775071779 -0.5408759411 1
-18.844448328 -16.6155540943 -1.4646568115 -2.3100671537 1
-15.6023843288 -16.6155540943 1.1224293374 -4.0958193624 1
-12.3603203297 -16.6155540943 1.9904813092 -5.569049781 1
-9.1182563305 -16.6155540943 -0.5931844552 -5.3878376362 1
-5.8761923313 -16.6155540943 -4.3020793024 -3.381034166 1
-2.6341283321 -16.6155540943 -5.2544643769 -2.3565076006 1
0.607935667 -16.6155540943 -2.2151230989 -3.1771293637 1
3.8499996662 -16.6155540943 0.9790974689 -4.2246109731 1
7.0920636654 -16.6155540943 3.1759312629 -3.7076066171 1
10.3341276646 -16.6155540943 4.6205681962 -2.173990468 1
13.5761916637 -16.6155540943 6.4548369963 -1.2345097365 1
16.8182556629 -16.6155540943 7.15577972 -1.9659910475 1
20.0603196621 -16.6155540943 6.4344475427 -3.4688282644 1
23.3023836613 -16.6155540943 4.4821401471 -4.8124231479 1
26.5444476604 -16.6155540943 3.8470673035 -5.7571811995 1
29.7865116596 -16.6155540943 3.6936560495 -6.391837063 1
33.0285756588 -16.6155540943 0 -0 0
36.270639658 -16.6155540943 0 -0 0
39.5127036572 -16.6155540943 0 -0 0
42.7547676563 -16.6155540943 0 -0 0
-35.0547683239 -19.8576180935 0 -0 0
-31.8127043247 -19.8576180935 0 -0 0
-28.5706403255 -19.8576180935 0 -0 0
-25.3285763264 -19.8576180935 0 -0 0
-22.0865123272 -19.8576180935 -2.2845284029 -0.8638721307 1
-18.844448328 -19.8576180935 -1.1757749424 -2.4901130524 1
-15.6023843288 -19.8576180935 1.1039596985 -4.2196144579 1
-12.3603203297 -19.8576180935 2.0271414429 -5.0324787598 1
-9.1182563305 -19.8576180935 -0.080292079 -4.4187075327 1
-5.8761923313 -19.8576180935 -3.8891255336 -1.9710991298 1
-2.6341283321 -19.8576180935 -5.2906326492 -0.4699389295 1
0.607935667 -19.8576180935 -2.90437664 -0.7173317645 1
3.8499996662 -19.8576180935 -0.1284630331 -1.4239943024 1
7.0920636654 -19.8576180935 1.7163632095 -1.2218030138 1
10.3341276646 -19.8576180935 2.7760080483 0.2887294079 1
13.5761916637 -19.8576180935 4.4877335992 0.6991175674 1
16.8182556629 -19.8576180935 5.7621626176 -1.5931863377 1
20.0603196621 -19.8576180935 5.7461923685 -4.4589897475 1
23.3023836613 -19.8576180935 4.0655727517 -5.6170571493 1
26.5444476604 -19.8576180935 3.0754840363 -4.7928477264 1
29.7865116596 -19.8576180935 2.7271298829 -4.3107960293 1
33.0285756588 -19.8576180935 0 -0 0
36.270639658 -19.8576180935 0 -0 0
39.5127036572 -19.8576180935 0 -0 0
42.7547676563 -19.8576180935 0 -0 0
-35.0547683239 -23.0996820927 0 -0 0
-31.8127043247 -23.0996820927 0 -0 0
-28.5706403255 -23.0996820927 0 -0 0
-25.3285763264 -23.0996820927 0 -0 0
-22.0865123272 -23.0996820927 -1.8901320623 -0.5396835772 1
-18.844448328 -23.0996820927 -1.3948663821 -2.8137811356 1
-15.6023843288 -23.0996820927 -0.6702042515 -4.7747131662 1
-12.3603203297 -23.0996820927 -0.3909115293 -5.4581499702 1
-9.1182563305 -23.0996820927 -1.6379325951 -4.7985160598 1
-5.8761923313 -23.0996820927 -3.7019340566 -2.8540929405 1
-2.6341283321 -23.0996820927 -4.5096750281 -1.3480931965 1
0.607935667 -23.0996820927 -2.9623513738 -0.1979721953 1
3.8499996662 -23.0996820927 -1.1737437116 0.2159716371 1
7.0920636654 -23.0996820927 0.0959339487 0.1958078842 1
10.3341276646 -23.0996820927 1.0962794586 0.8518625892 1
13.5761916637 -23.0996820927 2.7141512625 0.6574116266 1
16.8182556629 -23.0996820927 4.2395183909 -1.6170216899 1
20.0603196621 -23.0996820927 4.5685903073 -4.3216353996 1
23.3023836613 -23.0996820927 3.2745964353 -5.3766489205 1
26.5444476604 -23.0996820927 2.1509463515 -4.3584480134 1
29.7865116596 -23.0996820927 0 -0 0
33.0285756588 -23.0996820927 0 -0 0
36.270639658 -23.0996820927 0 -0 0
39.5127036572 -23.0996820927 0 -0 0
42.7547676563 -23.0996820927 0 -0 0
-35.0547683239 -26.3417460918 0 -0 0
-31.8127043247 -26.3417460918 0 -0 0
-28.5706403255 -26.3417460918 0 -0 0
-25.3285763264 -26.3417460918 0 -0 0
-22.0865123272 -26.3417460918 0 -0 0
-18.844448328 -26.3417460918 -1.3899781126 -1.7203696611 1
-15.6023843288 -26.3417460918 -1.7312349982 -3.3558239267 1
-12.3603203297 -26.3417460918 -1.8572409038 -4.3536858042 1
-9.1182563305 -26.3417460918 -2.2546839772 -4.7015665146 1
-5.8761923313 -26.3417460918 -2.515831307 -4.1219369336 1
-2.6341283321 -26.3417460918 -2.6984902008 -3.1650517345 1
0.607935667 -26.3417460918 -2.0634538919 -1.3526686553 1
3.8499996662 -26.3417460918 -1.4998655162 0.1868028038 1
7.0920636654 -26.3417460918 -0.9262156449 0.5667618106 1
10.3341276646 -26.3417460918 0.2008235915 0.3295400001 1
13.5761916637 -26.3417460918 1.6606557487 -0.4572558337 1
16.8182556629 -26.3417460918 2.9227261821 -1.8511130166 1
20.0603196621 -26.3417460918 2.9766192811 -3.3619931797 1
23.3023836613 -26.3417460918 2.2668615488 -4.2715760421 1
26.5444476604 -26.3417460918 0 -0 0
29.7865116596 -26.3417460918 0 -0 0
33.0285756588 -26.3417460918 0 -0 0
36.270639658 -26.3417460918 0 -0 0
39.5127036572 -26.3417460918 0 -0 0
42.7547676563 -26.3417460918 0 -0 0
-35.0547683239 -29.583810091 0 -0 0
-31.8127043247 -29.583810091 0 -0 0
-28.5706403255 -29.583810091 0 -0 0
-25.3285763264 -29.583810091 0 -0 0
-22.0865123272 -29.583810091 0 -0 0
-18.844448328 -29.583810091 0 -0 0
-15.6023843288 -29.583810091 -1.6065342315 -1.1640422805 1
-12.3603203297 -29.583810091 -1.5633545935 -2.6592170719 1
-9.1182563305 -29.583810091 -1.2992517169 -4.421258328 1
-5.8761923313 -29.583810091 -1.3098484778 -5.4490977871 1
-2.6341283321 -29.583810091 -1.6601919677 -5.0857362735 1
0.607935667 -29.583810091 -1.6950185664 -3.22158138 1
3.8499996662 -29.583810091 -1.6035419989 -1.2081901669 1
7.0920636654 -29.583810091 -1.2600692458 -0.4181822877 1
10.3341276646 -29.583810091 -0.2155057048 -0.8654173879 1
13.5761916637 -29.583810091 0.9867326442 -1.6732637368 1
16.8182556629 -29.583810091 1.8439494728 -2.1880621138 1
20.0603196621 -29.583810091 1.5457146122 -2.5995538856 1
23.3023836613 -29.583810091 0 -0 0
26.5444476604 -29.583810091 0 -0 0
29.7865116596 -29.583810091 0 -0 0
33.0285756588 -29.583810091 0 -0 0
36.270639658 -29.583810091 0 -0 0
39.5127036572 -29.583810091 0 -0 0
42.7547676563 -29.583810091 0 -0 0
-35.0547683239 -32.8258740902 0 -0 0
-31.8127043247 -32.8258740902 0 -0 0
-28.5706403255 -32.8258740902 0 -0 0
-25.3285763264 -32.8258740902 0 -0 0
-22.0865123272 -32.8258740902 0 -0 0
-18.844448328 -32.8258740902 0 -0 0
-15.6023843288 -32.8258740902 0 -0 0
-12.3603203297 -32.8258740902 0 -0 0
-9.1182563305 -32.8258740902 -0.3961805838 -4.5113906554 1
-5.8761923313 -32.8258740902 -1.4859569184 -5.6885464482 1
-2.6341283321 -32.8258740902 -2.8550211063 -5.4584645924 1
0.607935667 -32.8258740902 -2.8324371475 -4.0162830411 1
3.8499996662 -32.8258740902 -2.2370346357 -2.4680683597 1
7.0920636654 -32.8258740902 -1.3426658119 -1.6220862927 1
10.3341276646 -32.8258740902 -0.3961832635 -1.767589568 1
13.5761916637 -32.8258740902 1.0101154627 -2.1505760212 1
16.8182556629 -32.8258740902 0 -0 0
20.0603196621 -32.8258740902 0 -0 0
23.3023836613 -32.8258740902 0 -0 0
26.5444476604 -32.8258740902 0 -0 0
29.7865116596 -32.8258740902 0 -0 0
33.0285756588 -32.8258740902 0 -0 0
36.270639658 -32.8258740902 0 -0 0
39.5127036572 -32.8258740902 0 -0 0
42.7547676563 -32.8258740902 0 -0 0
-35.0547683239 -36.0679380894 0 -0 0
-31.8127043247 -36.0679380894 0 -0 0
-28.5706403255 -36.0679380894 0 -0 0
-25.3285763264 -36.0679380894 0 -0 0
-22.0865123272 -36.0679380894 0 -0 0
-18.844448328 -36.0679380894 0 -0 0
-15.6023843288 -36.0679380894 0 -0 0
-12.3603203297 -36.0679380894 0 -0 0
-9.1182563305 -36.0679380894 0 -0 0
-5.8761923313 -36.0679380894 0 -0 0
-2.6341283321 -36.0679380894 0 -0 0
0.607935667 -36.0679380894 0 -0 0
3.8499996662 -36.0679380894 0 -0 0
7.0920636654 -36.0679380894 0 -0 0
10.3341276646 -36.0679380894 0 -0 0
13.5761916637 -36.0679380894 0 -0 0
16.8182556629 -36.0679380894 0 -0 0
20.0603196621 -36.0679380894 0 -0 0
23.3023836613 -36.0679380894 0 -0 0
26.5444476604 -36.0679380894 0 -0 0
29.7865116596 -36.0679380894 0 -0 0
33.0285756588 -36.0679380894 0 -0 0
36.270639658 -36.0679380894 0 -0 0
39.5127036572 -36.0679380894 0 -0 0
42.7547676563 -36.0679380894 0 -0 0
-35.0547683239 -39.3100020885 0 -0 0
-31.8127043247 -39.3100020885 0 -0 0
-28.5706403255 -39.3100020885 0 -0 0
-25.3285763264 -39.3100020885 0 -0 0
-22.0865123272 -39.3100020885 0 -0 0
-18.844448328 -39.3100020885 0 -0 0
-15.6023843288 -39.3100020885 0 -0 0
-12.3603203297 -39.3100020885 0 -0 0
-9.1182563305 -39.3100020885 0 -0 0
-5.8761923313 -39.3100020885 0 -0 0
-2.6341283321 -39.3100020885 0 -0 0
0.607935667 -39.3100020885 0 -0 0
3.8499996662 -39.3100020885 0 -0 0
7.0920636654 -39.3100020885 0 -0 0
10.3341276646 -39.3100020885 0 -0 0
13.5761916637 -39.3100020885 0 -0 0
16.8182556629 -39.3100020885 0 -0 0
20.0603196621 -39.3100020885 0 -0 0
23.3023836613 -39.3100020885 0 -0 0
26.5444476604 -39.3100020885 0 -0 0
29.7865116596 -39.3100020885 0 -0 0
33.0285756588 -39.3100020885 0 -0 0
36.270639658 -39.3100020885 0 -0 0
39.5127036572 -39.3100020885 0 -0 0
42.7547676563 -39.3100020885 0 -0 0
-35.0547683239 -42.5520660877 0 -0 0
-31.8127043247 -42.5520660877 0 -0 0
-28.5706403255 -42.5520660877 0 -0 0
-25.3285763264 -42.5520660877 0 -0 0
-22.0865123272 -42.5520660877 0 -0 0
-18.844448328 -42.5520660877 0 -0 0
-15.6023843288 -42.5520660877 0 -0 0
-12.3603203297 -42.5520660877 0 -0 0
-9.1182563305 -42.5520660877 0 -0 0
-5.8761923313 -42.5520660877 0 -0 0
-2.6341283321 -42.5520660877 0 -0 0
0.607935667 -42.5520660877 0 -0 0
3.8499996662 -42.5520660877 0 -0 0
7.0920636654 -42.5520660877 0 -0 0
10.3341276646 -42.5520660877 0 -0 0
13.5761916637 -42.5520660877 0 -0 0
16.8182556629 -42.5520660877 0 -0 0
20.0603196621 -42.5520660877 0 -0 0
23.3023836613 -42.5520660877 0 -0 0
26.5444476604 -42.5520660877 0 -0 0
29.7865116596 -42.5520660877 0 -0 0
33.0285756588 -42.5520660877 0 -0 0
36.270639658 -42.5520660877 0 -0 0
39.5127036572 -42.5520660877 0 -0 0
42.7547676563 -42.5520660877 0 -0 0
