TITLE = "B00080"
VARIABLES = "x", "y", "Vx", "Vy", "isValid"
ZONE T="Frame 0", I=25, J=25, F=POINT
-35.0547683239 35.2574698925 0 -0 0
-31.8127043247 35.2574698925 0 -0 0
-28.5706403255 35.2574698925 0 -0 0
-25.3285763264 35.2574698925 0 -0 0
-22.0865123272 35.2574698925 0 -0 0
-18.844448328 35.2574698925 0 -0 0
-15.6023843288 35.2574698925 0 -0 0
-12.3603203297 35.2574698925 0 -0 0
-9.1182563305 35.2574698925 0 -0 0
-5.8761923313 35.2574698925 0 -0 0
-2.6341283321 35.2574698925 0 -0 0
0.607935667 35.2574698925 0 -0 0
3.8499996662 35.2574698925 0 -0 0
7.0920636654 35.2574698925 0 -0 0
10.3341276646 35.2574698925 0 -0 0
13.5761916637 35.2574698925 0 -0 0
16.8182556629 35.2574698925 0 -0 0
20.0603196621 35.2574698925 0 -0 0
23.3023836613 35.2574698925 0 -0 0
26.5444476604 35.2574698925 0 -0 0
29.7865116596 35.2574698925 0 -0 0
33.0285756588 35.2574698925 0 -0 0
36.270639658 35.2574698925 0 -0 0
39.5127036572 35.2574698925 0 -0 0
42.7547676563 35.2574698925 0 -0 0
-35.0547683239 32.0154058933 0 -0 0
-31.8127043247 32.0154058933 0 -0 0
-28.5706403255 32.0154058933 0 -0 0
-25.3285763264 32.0154058933 0 -0 0
-22.0865123272 32.0154058933 0 -0 0
-18.844448328 32.0154058933 0 -0 0
-15.6023843288 32.0154058933 0 -0 0
-12.3603203297 32.0154058933 0 -0 0
-9.1182563305 32.0154058933 0 -0 0
-5.8761923313 32.0154058933 0 -0 0
-2.6341283321 32.0154058933 0 -0 0
0.607935667 32.0154058933 0 -0 0
3.8499996662 32.0154058933 0 -0 0
7.0920636654 32.0154058933 0 -0 0
10.3341276646 32.0154058933 0 -0 0
13.5761916637 32.0154058933 0 -0 0
16.8182556629 32.0154058933 0 -0 0
20.0603196621 32.0154058933 0 -0 0
23.3023836613 32.0154058933 0 -0 0
26.5444476604 32.0154058933 0 -0 0
29.7865116596 32.0154058933 0 -0 0
33.0285756588 32.0154058933 0 -0 0
36.270639658 32.0154058933 0 -0 0
39.5127036572 32.0154058933 0 -0 0
42.7547676563 32.0154058933 0 -0 0
-35.0547683239 28.7733418941 0 -0 0
-31.8127043247 28.7733418941 0 -0 0
-28.5706403255 28.7733418941 0 -0 0
-25.3285763264 28.7733418941 0 -0 0
-22.0865123272 28.7733418941 0 -0 0
-18.844448328 28.7733418941 0 -0 0
-15.6023843288 28.7733418941 0 -0 0
-12.3603203297 28.7733418941 0 -0 0
-9.1182563305 28.7733418941 0 -0 0
-5.8761923313 28.7733418941 0 -0 0
-2.6341283321 28.7733418941 0 -0 0
0.607935667 28.7733418941 0 -0 0
3.8499996662 28.7733418941 0 -0 0
7.0920636654 28.7733418941 0 -0 0
10.3341276646 28.7733418941 0 -0 0
13.5761916637 28.7733418941 0 -0 0
16.8182556629 28.7733418941 0 -0 0
20.0603196621 28.7733418941 0 -0 0
23.3023836613 28.7733418941 0 -0 0
26.5444476604 28.7733418941 0 -0 0
29.7865116596 28.7733418941 0 -0 0
33.0285756588 28.7733418941 0 -0 0
36.270639658 28.7733418941 0 -0 0
39.5127036572 28.7733418941 0 -0 0
42.7547676563 28.7733418941 0 -0 0
-35.0547683239 25.531277895 0 -0 0
-31.8127043247 25.531277895 0 -0 0
-28.5706403255 25.531277895 0 -0 0
-25.3285763264 25.531277895 0 -0 0
-22.0865123272 25.531277895 0 -0 0
-18.844448328 25.531277895 0 -0 0
-15.6023843288 25.531277895 0 -0 0
-12.3603203297 25.531277895 0 -0 0
-9.1182563305 25.531277895 5.8863671448 2.8680924225 1
-5.8761923313 25.531277895 6.1004177595 4.3894802739 1
-2.6341283321 25.531277895 5.4310356926 6.4570798121 1
0.607935667 25.531277895 4.2779992272 8.0933558094 1
3.8499996662 25.531277895 2.9352911436 7.1218138033 1
7.0920636654 25.531277895 2.4686378199 4.2124113599 1
10.3341276646 25.531277895 3.0022307996 0.182180563 1
13.5761916637 25.531277895 2.8925616993 -2.1472268946 1
16.8182556629 25.531277895 2.1152663174 -2.7024906135 1
20.0603196621 25.531277895 0 -0 0
23.3023836613 25.531277895 0 -0 0
26.5444476604 25.531277895 0 -0 0
29.7865116596 25.531277895 0 -0 0
33.0285756588 25.531277895 0 -0 0
36.270639658 25.531277895 0 -0 0
39.5127036572 25.531277895 0 -0 0
42.7547676563 25.531277895 0 -0 0
-35.0547683239 22.2892138958 0 -0 0
-31.8127043247 22.2892138958 0 -0 0
-28.5706403255 22.2892138958 0 -0 0
-25.3285763264 22.2892138958 0 -0 0
-22.0865123272 22.2892138958 0 -0 0
-18.844448328 22.2892138958 0 -0 0
-15.6023843288 22.2892138958 3.3812274081 1.5127063006 1
-12.3603203297 22.2892138958 3.7418937986 -0.5120104073 1
-9.1182563305 22.2892138958 3.7699869681 -1.0430535731 1
-5.8761923313 22.2892138958 4.2125804467 1.0520312523 1
-2.6341283321 22.2892138958 4.7198903917 3.2713777471 1
0.607935667 22.2892138958 5.4806240226 4.3347350982 1
3.8499996662 22.2892138958 4.8310151483 3.8223625129 1
7.0920636654 22.2892138958 4.0725294661 2.239050694 1
10.3341276646 22.2892138958 3.7697103904 -0.2419347656 1
13.5761916637 22.2892138958 3.5390180104 -2.8473167867 1
16.8182556629 22.2892138958 3.1026496438 -3.2647422976 1
20.0603196621 22.2892138958 2.742315388 -1.4999191106 1
23.3023836613 22.2892138958 0 -0 0
26.5444476604 22.2892138958 0 -0 0
29.7865116596 22.2892138958 0 -0 0
33.0285756588 22.2892138958 0 -0 0
36.270639658 22.2892138958 0 -0 0
39.5127036572 22.2892138958 0 -0 0
42.7547676563 22.2892138958 0 -0 0
-35.0547683239 19.0471498966 0 -0 0
-31.8127043247 19.0471498966 0 -0 0
-28.5706403255 19.0471498966 0 -0 0
-25.3285763264 19.0471498966 0 -0 0
-22.0865123272 19.0471498966 0 -0 0
-18.844448328 19.0471498966 4.8080042453 4.5319011872 1
-15.6023843288 19.0471498966 4.2996064078 2.809586575 1
-12.3603203297 19.0471498966 3.1570472858 -0.0167047034 1
-9.1182563305 19.0471498966 1.7558511692 -1.7037594486 1
-5.8761923313 19.0471498966 2.3373873549 -0.7575475523 1
-2.6341283321 19.0471498966 3.4821661942 0.1540311005 1
0.607935667 19.0471498966 4.8407953105 -0.7653781587 1
3.8499996662 19.0471498966 3.5177743664 -1.0920516845 1
7.0920636654 19.0471498966 2.8414742335 -0.2723210239 1
10.3341276646 19.0471498966 3.0797824646 -0.4881681105 1
13.5761916637 19.0471498966 4.0207532736 -3.2007284473 1
16.8182556629 19.0471498966 4.5781621304 -4.5576419364 1
20.0603196621 19.0471498966 4.9792082626 -3.1201966274 1
23.3023836613 19.0471498966 5.5935099995 -0.3715644506 1
26.5444476604 19.0471498966 0 -0 0
29.7865116596 19.0471498966 0 -0 0
33.0285756588 19.0471498966 0 -0 0
36.270639658 19.0471498966 0 -0 0
39.5127036572 19.0471498966 0 -0 0
42.7547676563 19.0471498966 0 -0 0
-35.0547683239 15.8050858974 0 -0 0
-31.8127043247 15.8050858974 0 -0 0
-28.5706403255 15.8050858974 0 -0 0
-25.3285763264 15.8050858974 0 -0 0
-22.0865123272 15.8050858974 4.7157849036 3.9723491551 1
-18.844448328 15.8050858974 4.8767954018 4.8063740673 1
-15.6023843288 15.8050858974 4.3789833044 3.7804353251 1
-12.3603203297 15.8050858974 1.9601015426 1.7183513382 1
-9.1182563305 15.8050858974 -0.4303844297 0.0247392778 1
-5.8761923313 15.8050858974 0.185761448 -0.3886870942 1
-2.6341283321 15.8050858974 2.066285945 -1.6461754261 1
0.607935667 15.8050858974 2.7406405228 -4.0359294186 1
3.8499996662 15.8050858974 0.8182728152 -3.6030584315 1
7.0920636654 15.8050858974 0.0635444316 -0.9251657215 1
10.3341276646 15.8050858974 1.5980195029 -0.098177708 1
13.5761916637 15.8050858974 4.0289147315 -3.3020217118 1
16.8182556629 15.8050858974 6.3116790457 -6.0468854796 1
20.0603196621 15.8050858974 7.2632072124 -5.1355927269 1
23.3023836613 15.8050858974 7.4552040761 -2.3523464045 1
26.5444476604 15.8050858974 7.6020469114 -0.2170630774 1
29.7865116596 15.8050858974 0 -0 0
33.0285756588 15.8050858974 0 -0 0
36.270639658 15.8050858974 0 -0 0
39.5127036572 15.8050858974 0 -0 0
42.7547676563 15.8050858974 0 -0 0
-35.0547683239 12.5630218983 0 -0 0
-31.8127043247 12.5630218983 0 -0 0
-28.5706403255 12.5630218983 0 -0 0
-25.3285763264 12.5630218983 0 -0 0
-22.0865123272 12.5630218983 3.3217372338 3.2785723909 1
-18.844448328 12.5630218983 3.619342397 3.7891934179 1
-15.6023843288 12.5630218983 3.3703605612 3.12454397 1
-12.3603203297 12.5630218983 1.0821749012 2.1726785356 1
-9.1182563305 12.5630218983 -1.4857567317 0.8034618675 1
-5.8761923313 12.5630218983 -1.3513869169 -0.8886880355 1
-2.6341283321 12.5630218983 0.8709613216 -3.2901158869 1
0.607935667 12.5630218983 1.8000691813 -5.5620453599 1
3.8499996662 12.5630218983 0.5342026736 -4.4458773674 1
7.0920636654 12.5630218983 -0.2195809611 -1.3757503635 1
10.3341276646 12.5630218983 1.2875567976 -0.5603611955 1
13.5761916637 12.5630218983 3.926062547 -3.719430918 1
16.8182556629 12.5630218983 6.3353318747 -7.0236299245 1
20.0603196621 12.5630218983 7.8075012735 -7.3039619644 1
23.3023836613 12.5630218983 7.9884078543 -4.9751522927 1
26.5444476604 12.5630218983 8.0652813603 -2.5585772071 1
29.7865116596 12.5630218983 7.7223745196 -1.2810911897 1
33.0285756588 12.5630218983 0 -0 0
36.270639658 12.5630218983 0 -0 0
39.5127036572 12.5630218983 0 -0 0
42.7547676563 12.5630218983 0 -0 0
-35.0547683239 9.3209578991 0 -0 0
-31.8127043247 9.3209578991 0 -0 0
-28.5706403255 9.3209578991 0 -0 0
-25.3285763264 9.3209578991 1.6835359114 3.6326090688 1
-22.0865123272 9.3209578991 1.2696862845 2.541848181 1
-18.844448328 9.3209578991 1.0821083233 1.7598834367 1
-15.6023843288 9.3209578991 0.5747985293 0.6142220623 1
-12.3603203297 9.3209578991 -0.9396782008 0.2112737035 1
-9.1182563305 9.3209578991 -2.4280092791 -0.7556430612 1
-5.8761923313 9.3209578991 -1.9572480517 -3.2500094017 1
-2.6341283321 9.3209578991 1.1345478041 -5.8164787356 1
0.607935667 9.3209578991 3.2270395625 -7.2531066911 1
3.8499996662 9.3209578991 3.4817153967 -5.7184856833 1
7.0920636654 9.3209578991 2.2601033604 -2.9488138612 1
10.3341276646 9.3209578991 2.3098289225 -2.3343662869 1
13.5761916637 9.3209578991 3.3902001807 -4.4778740266 1
16.8182556629 9.3209578991 5.213372659 -7.2083476011 1
20.0603196621 9.3209578991 6.7876107061 -8.1842822409 1
23.3023836613 9.3209578991 7.4668281904 -7.009576999 1
26.5444476604 9.3209578991 7.3494469198 -4.9439135048 1
29.7865116596 9.3209578991 6.3355009615 -3.2007743423 1
33.0285756588 9.3209578991 0 -0 0
36.270639658 9.3209578991 0 -0 0
39.5127036572 9.3209578991 0 -0 0
42.7547676563 9.3209578991 0 -0 0
-35.0547683239 6.0788938999 0 -0 0
-31.8127043247 6.0788938999 0 -0 0
-28.5706403255 6.0788938999 0 -0 0
-25.3285763264 6.0788938999 -0.4661114911 4.5153515139 1
-22.0865123272 6.0788938999 -0.8935642273 2.5695633206 1
-18.844448328 6.0788938999 -1.2910931274 0.265686367 1
-15.6023843288 6.0788938999 -1.8902552542 -1.4995240212 1
-12.3603203297 6.0788938999 -2.7502618642 -1.8973344056 1
-9.1182563305 6.0788938999 -3.0399918093 -2.7378620642 1
-5.8761923313 6.0788938999 -1.4460690382 -5.2632031455 1
-2.6341283321 6.0788938999 2.6885382343 -7.5060714271 1
0.607935667 6.0788938999 6.3030900397 -8.27531254 1
3.8499996662 6.0788938999 7.4133430133 -7.6555852301 1
7.0920636654 6.0788938999 5.5622923474 -6.2864223075 1
10.3341276646 6.0788938999 3.8151760216 -5.88147027 1
13.5761916637 6.0788938999 3.2919924485 -6.2818962159 1
16.8182556629 6.0788938999 4.2588598082 -7.4247424836 1
20.0603196621 6.0788938999 5.6144936725 -8.2655471729 1
23.3023836613 6.0788938999 6.3567533618 -7.834503833 1
26.5444476604 6.0788938999 5.9448476293 -6.0926452012 1
29.7865116596 6.0788938999 4.8809404442 -3.798546334 1
33.0285756588 6.0788938999 4.2567359571 -1.7882448804 1
36.270639658 6.0788938999 0 -0 0
39.5127036572 6.0788938999 0 -0 0
42.7547676563 6.0788938999 0 -0 0
-35.0547683239 2.8368299007 0 -0 0
-31.8127043247 2.8368299007 0 -0 0
-28.5706403255 2.8368299007 -2.2561902085 4.5013366329 1
-25.3285763264 2.8368299007 -2.4525354717 4.2941023302 1
-22.0865123272 2.8368299007 -2.4260575342 2.645329308 1
-18.844448328 2.8368299007 -2.4813075549 0.3133205366 1
-15.6023843288 2.8368299007 -2.7701745534 -2.032872127 1
-12.3603203297 2.8368299007 -3.6027000278 -3.6685868165 1
-9.1182563305 2.8368299007 -3.6484144583 -5.1971874281 1
-5.8761923313 2.8368299007 -1.4431939586 -7.3334096399 1
-2.6341283321 2.8368299007 3.2666584135 -8.4389004043 1
0.607935667 2.8368299007 7.957379821 -8.6341799677 1
3.8499996662 2.8368299007 9.8760718531 -8.7903237853 1
7.0920636654 2.8368299007 8.1306255615 -8.6839313457 1
10.3341276646 2.8368299007 6.1121928441 -8.3904479753 1
13.5761916637 2.8368299007 4.9117024677 -7.2108941692 1
16.8182556629 2.8368299007 5.1311113226 -6.7889265638 1
20.0603196621 2.8368299007 5.4864557059 -6.9163527986 1
23.3023836613 2.8368299007 5.71888968 -6.9151589249 1
26.5444476604 2.8368299007 5.2467540184 -5.4578625226 1
29.7865116596 2.8368299007 4.4389550742 -2.7930199929 1
33.0285756588 2.8368299007 4.0452219465 -0.5961095815 1
36.270639658 2.8368299007 0 -0 0
39.5127036572 2.8368299007 0 -0 0
42.7547676563 2.8368299007 0 -0 0
-35.0547683239 -0.4052340984 0 -0 0
-31.8127043247 -0.4052340984 0 -0 0
-28.5706403255 -0.4052340984 -3.8358997236 2.6128003273 1
-25.3285763264 -0.4052340984 -3.791342934 3.2385287093 1
-22.0865123272 -0.4052340984 -3.0549466317 3.122053261 1
-18.844448328 -0.4052340984 -2.866698966 1.4933961341 1
-15.6023843288 -0.4052340984 -3.2073717473 -1.2614821019 1
-12.3603203297 -0.4052340984 -4.003455995 -4.2621986688 1
-9.1182563305 -0.4052340984 -4.2829290135 -6.7684169378 1
-5.8761923313 -0.4052340984 -2.6187500694 -8.7627892062 1
-2.6341283321 -0.4052340984 1.2758141716 -9.4017827502 1
0.607935667 -0.4052340984 5.9665976278 -9.2229692226 1
3.8499996662 -0.4052340984 8.8230034344 -9.443491031 1
7.0920636654 -0.4052340984 8.6249816453 -9.5216852258 1
10.3341276646 -0.4052340984 8.329735545 -8.8299365974 1
13.5761916637 -0.4052340984 7.8282832501 -6.9575344947 1
16.8182556629 -0.4052340984 7.3206152034 -5.4719734207 1
20.0603196621 -0.4052340984 6.388275974 -5.0556762622 1
23.3023836613 -0.4052340984 5.9956080932 -5.1833833018 1
26.5444476604 -0.4052340984 5.7683874277 -4.2361345411 1
29.7865116596 -0.4052340984 5.244871116 -2.1040003048 1
33.0285756588 -0.4052340984 4.8169752063 -0.3652318099 1
36.270639658 -0.4052340984 0 -0 0
39.5127036572 -0.4052340984 0 -0 0
42.7547676563 -0.4052340984 0 -0 0
-35.0547683239 -3.6472980976 0 -0 0
-31.8127043247 -3.6472980976 0 -0 0
-28.5706403255 -3.6472980976 -5.4320236427 1.9615150781 1
-25.3285763264 -3.6472980976 -5.0952673346 3.5811964129 1
-22.0865123272 -3.6472980976 -4.1603836507 4.1069114571 1
-18.844448328 -3.6472980976 -3.5797169033 2.6707599641 1
-15.6023843288 -3.6472980976 -3.125716104 0.296124144 1
-12.3603203297 -3.6472980976 -2.9016241483 -2.2410904546 1
-9.1182563305 -3.6472980976 -3.6285899358 -5.1455380507 1
-5.8761923313 -3.6472980976 -3.777725709 -8.3545695661 1
-2.6341283321 -3.6472980976 -1.6296532293 -10.220403854 1
0.607935667 -3.6472980976 2.4547132192 -10.5822556639 1
3.8499996662 -3.6472980976 5.8362558534 -10.3116455117 1
7.0920636654 -3.6472980976 7.0204287488 -9.1554075687 1
10.3341276646 -3.6472980976 8.2558959394 -7.4512637496 1
13.5761916637 -3.6472980976 8.7543403007 -5.3430229891 1
16.8182556629 -3.6472980976 8.1570954975 -3.7666722627 1
20.0603196621 -3.6472980976 6.9812368421 -3.443689585 1
23.3023836613 -3.6472980976 6.6386337537 -3.9392718501 1
26.5444476604 -3.6472980976 6.8808904637 -4.0455269066 1
29.7865116596 -3.6472980976 6.4749812741 -3.1492575169 1
33.0285756588 -3.6472980976 5.8984888573 -2.1789244815 1
36.270639658 -3.6472980976 0 -0 0
39.5127036572 -3.6472980976 0 -0 0
42.7547676563 -3.6472980976 0 -0 0
-35.0547683239 -6.8893620968 0 -0 0
-31.8127043247 -6.8893620968 0 -0 0
-28.5706403255 -6.8893620968 -5.991100722 3.8498140583 1
-25.3285763264 -6.8893620968 -5.6289457636 5.7433281588 1
-22.0865123272 -6.8893620968 -4.9629242971 6.1646689352 1
-18.844448328 -6.8893620968 -3.7122103074 4.7595949938 1
-15.6023843288 -6.8893620968 -1.7672566783 3.0399338367 1
-12.3603203297 -6.8893620968 -0.3363700126 1.2601358237 1
-9.1182563305 -6.8893620968 -1.3939065125 -1.8599227413 1
-5.8761923313 -6.8893620968 -3.1402285832 -6.6141995021 1
-2.6341283321 -6.8893620968 -2.4327286127 -10.7310109918 1
0.607935667 -6.8893620968 1.0880280223 -12.6282785175 1
3.8499996662 -6.8893620968 4.4565120218 -12.0262896216 1
7.0920636654 -6.8893620968 5.7231705956 -9.1059677936 1
10.3341276646 -6.8893620968 6.5809316724 -5.9343479423 1
13.5761916637 -6.8893620968 7.2449736156 -3.7047961528 1
16.8182556629 -6.8893620968 7.3135636796 -2.587305056 1
20.0603196621 -6.8893620968 7.1217667006 -2.7150145111 1
23.3023836613 -6.8893620968 7.1659442527 -3.4290741439 1
26.5444476604 -6.8893620968 7.4798315698 -4.2214825652 1
29.7865116596 -6.8893620968 6.9299008791 -4.4477968046 1
33.0285756588 -6.8893620968 6.0837294953 -4.329896196 1
36.270639658 -6.8893620968 0 -0 0
39.5127036572 -6.8893620968 0 -0 0
42.7547676563 -6.8893620968 0 -0 0
-35.0547683239 -10.131426096 0 -0 0
-31.8127043247 -10.131426096 0 -0 0
-28.5706403255 -10.131426096 -5.7309751596 8.017075315 1
-25.3285763264 -10.131426096 -5.1923539609 9.5963473179 1
-22.0865123272 -10.131426096 -4.1357495143 9.5616796911 1
-18.844448328 -10.131426096 -2.2262603337 8.1795973285 1
-15.6023843288 -10.131426096 0.1044645103 6.4732378683 1
-12.3603203297 -10.131426096 1.3397987337 3.7417675874 1
-9.1182563305 -10.131426096 0.6830119734 -0.6147481186 1
-5.8761923313 -10.131426096 -0.8464818544 -6.1283714323 1
-2.6341283321 -10.131426096 -0.1586302617 -10.4684807735 1
0.607935667 -10.131426096 2.966156129 -12.8374231992 1
3.8499996662 -10.131426096 5.7157265489 -12.5602850884 1
7.0920636654 -10.131426096 6.1021678079 -9.5413270742 1
10.3341276646 -10.131426096 5.2940488066 -5.7755289299 1
13.5761916637 -10.131426096 5.397991903 -2.9916985031 1
16.8182556629 -10.131426096 6.5526730395 -1.7572595717 1
20.0603196621 -10.131426096 7.8650487612 -1.6562283917 1
23.3023836613 -10.131426096 8.134657678 -2.1597485277 1
26.5444476604 -10.131426096 7.5029324512 -3.0955295795 1
29.7865116596 -10.131426096 5.9480705446 -4.1024022742 1
33.0285756588 -10.131426096 4.7101627672 -4.747912907 1
36.270639658 -10.131426096 0 -0 0
39.5127036572 -10.131426096 0 -0 0
42.7547676563 -10.131426096 0 -0 0
-35.0547683239 -13.3734900951 0 -0 0
-31.8127043247 -13.3734900951 0 -0 0
-28.5706403255 -13.3734900951 0 -0 0
-25.3285763264 -13.3734900951 -4.3713432981 13.5325535638 1
-22.0865123272 -13.3734900951 -2.986253304 11.4736921904 1
-18.844448328 -13.3734900951 -1.5826718556 8.8306431387 1
-15.6023843288 -13.3734900951 -0.6354529115 5.3002651623 1
-12.3603203297 -13.3734900951 -0.7423544232 1.3118216605 1
-9.1182563305 -13.3734900951 0.0732408901 -3.7211057833 1
-5.8761923313 -13.3734900951 0.7559822916 -7.9755421598 1
-2.6341283321 -13.3734900951 2.1451801894 -10.1070842902 1
0.607935667 -13.3734900951 4.5448130787 -11.425679991 1
3.8499996662 -13.3734900951 6.7059786142 -10.9749875562 1
7.0920636654 -13.3734900951 6.8792412634 -8.468724298 1
10.3341276646 -13.3734900951 5.2305820729 -4.6518217793 1
13.5761916637 -13.3734900951 4.5459465642 -1.7751174033 1
16.8182556629 -13.3734900951 6.1365220203 -0.5103479972 1
20.0603196621 -13.3734900951 8.3311166219 0.1011257252 1
23.3023836613 -13.3734900951 8.7053449823 0.1339833117 1
26.5444476604 -13.3734900951 7.1855710041 -0.4629800638 1
29.7865116596 -13.3734900951 4.4658779213 -1.941642547 1
33.0285756588 -13.3734900951 2.7635695999 -3.2991215711 1
36.270639658 -13.3734900951 0 -0 0
39.5127036572 -13.3734900951 0 -0 0
42.7547676563 -13.3734900951 0 -0 0
-35.0547683239 -16.6155540943 0 -0 0
-31.8127043247 -16.6155540943 0 -0 0
-28.5706403255 -16.6155540943 0 -0 0
-25.3285763264 -16.6155540943 -3.9837371517 15.9760693111 1
-22.0865123272 -16.6155540943 -2.8866865365 11.156474467 1
-18.844448328 -16.6155540943 -3.1448214037 5.6454746031 1
-15.6023843288 -16.6155540943 -4.0787174395 0.0213060112 1
-12.3603203297 -16.6155540943 -4.6828951037 -4.5425304068 1
-9.1182563305 -16.6155540943 -1.9300286988 -8.9043710262 1
-5.8761923313 -16.6155540943 0.8374445419 -10.5528333514 1
-2.6341283321 -16.6155540943 2.1618634715 -9.6029199638 1
0.607935667 -16.6155540943 2.9183803492 -8.5644328668 1
3.8499996662 -16.6155540943 4.6344194253 -6.989220155 1
7.0920636654 -16.6155540943 6.0449041446 -4.280262273 1
10.3341276646 -16.6155540943 5.5887453748 -0.6280710646 1
13.5761916637 -16.6155540943 4.6049886584 1.4528539484 1
16.8182556629 -16.6155540943 5.328540704 1.8373476897 1
20.0603196621 -16.6155540943 7.1407623958 2.3810472296 1
23.3023836613 -16.6155540943 7.6559095144 2.6225031927 1
26.5444476604 -16.6155540943 6.4382761512 2.1440400612 1
29.7865116596 -16.6155540943 3.5821659446 0.1400282217 1
33.0285756588 -16.6155540943 0 -0 0
36.270639658 -16.6155540943 0 -0 0
39.5127036572 -16.6155540943 0 -0 0
42.7547676563 -16.6155540943 0 -0 0
-35.0547683239 -19.8576180935 0 -0 0
-31.8127043247 -19.8576180935 0 -0 0
-28.5706403255 -19.8576180935 0 -0 0
-25.3285763264 -19.8576180935 0 -0 0
-22.0865123272 -19.8576180935 -3.0482018797 10.4014523469 1
-18.844448328 -19.8576180935 -3.9236642318 3.5295877975 1
-15.6023843288 -19.8576180935 -5.2777627275 -3.0822626057 1
-12.3603203297 -19.8576180935 -4.9926684784 -7.6110664849 1
-9.1182563305 -19.8576180935 -1.3778438695 -10.9119266308 1
-5.8761923313 -19.8576180935 1.6467916871 -11.225461885 1
-2.6341283321 -19.8576180935 1.9096460388 -9.2038189338 1
0.607935667 -19.8576180935 1.4386249914 -6.6450662991 1
3.8499996662 -19.8576180935 3.1450167593 -3.7782773547 1
7.0920636654 -19.8576180935 5.4610703409 -0.0455321243 1
10.3341276646 -19.8576180935 5.8041523072 4.260918742 1
13.5761916637 -19.8576180935 4.1677953898 6.1294861974 1
16.8182556629 -19.8576180935 3.4219027497 5.4684630577 1
20.0603196621 -19.8576180935 4.3237547216 4.4994546364 1
23.3023836613 -19.8576180935 5.0736260347 3.8648199087 1
26.5444476604 -19.8576180935 4.9569676103 3.1691913419 1
29.7865116596 -19.8576180935 3.4670555703 1.2247732047 1
33.0285756588 -19.8576180935 0 -0 0
36.270639658 -19.8576180935 0 -0 0
39.5127036572 -19.8576180935 0 -0 0
42.7547676563 -19.8576180935 0 -0 0
-35.0547683239 -23.0996820927 0 -0 0
-31.8127043247 -23.0996820927 0 -0 0
-28.5706403255 -23.0996820927 0 -0 0
-25.3285763264 -23.0996820927 0 -0 0
-22.0865123272 -23.0996820927 -1.0609626591 9.4546773312 1
-18.844448328 -23.0996820927 -1.5227409988 4.0060357766 1
-15.6023843288 -23.0996820927 -2.8866907637 -1.218365494 1
-12.3603203297 -23.0996820927 -2.2319996231 -6.0705811843 1
-9.1182563305 -23.0996820927 0.5440021977 -9.7777116408 1
-5.8761923313 -23.0996820927 2.9602987807 -10.9958552839 1
-2.6341283321 -23.0996820927 2.7908103907 -9.467770689 1
0.607935667 -23.0996820927 2.6399055467 -6.1826404475 1
3.8499996662 -23.0996820927 4.6085893017 -2.5071074844 1
7.0920636654 -23.0996820927 6.2102933873 2.0815863386 1
10.3341276646 -23.0996820927 5.0508515513 7.2180574111 1
13.5761916637 -23.0996820927 2.0768605133 9.1842477395 1
16.8182556629 -23.0996820927 0.4755043011 7.4871125686 1
20.0603196621 -23.0996820927 1.2507485619 4.5096985795 1
23.3023836613 -23.0996820927 2.3424116486 3.0259452246 1
26.5444476604 -23.0996820927 2.8799707708 2.4660048967 1
29.7865116596 -23.0996820927 0 -0 0
33.0285756588 -23.0996820927 0 -0 0
36.270639658 -23.0996820927 0 -0 0
39.5127036572 -23.0996820927 0 -0 0
42.7547676563 -23.0996820927 0 -0 0
-35.0547683239 -26.3417460918 0 -0 0
-31.8127043247 -26.3417460918 0 -0 0
-28.5706403255 -26.3417460918 0 -0 0
-25.3285763264 -26.3417460918 0 -0 0
-22.0865123272 -26.3417460918 0 -0 0
-18.844448328 -26.3417460918 3.0931089206 5.8414214554 1
-15.6023843288 -26.3417460918 1.4823312141 1.8552470381 1
-12.3603203297 -26.3417460918 1.2525328051 -3.1426570925 1
-9.1182563305 -26.3417460918 1.4954896401 -7.6090199307 1
-5.8761923313 -26.3417460918 2.8251410517 -10.2888453632 1
-2.6341283321 -26.3417460918 3.4010259637 -9.6944303486 1
0.607935667 -26.3417460918 4.5203226661 -6.4597839933 1
3.8499996662 -26.3417460918 6.0469392251 -2.9086451761 1
7.0920636654 -26.3417460918 5.5183901652 1.3437087151 1
10.3341276646 -26.3417460918 2.3057063747 5.891042395 1
13.5761916637 -26.3417460918 -1.3372136681 8.0409890208 1
16.8182556629 -26.3417460918 -2.3091675213 6.7511072796 1
20.0603196621 -26.3417460918 -0.6354658195 3.6987540168 1
23.3023836613 -26.3417460918 1.1018756281 2.0463906174 1
26.5444476604 -26.3417460918 0 -0 0
29.7865116596 -26.3417460918 0 -0 0
33.0285756588 -26.3417460918 0 -0 0
36.270639658 -26.3417460918 0 -0 0
39.5127036572 -26.3417460918 0 -0 0
42.7547676563 -26.3417460918 0 -0 0
-35.0547683239 -29.583810091 0 -0 0
-31.8127043247 -29.583810091 0 -0 0
-28.5706403255 -29.583810091 0 -0 0
-25.3285763264 -29.583810091 0 -0 0
-22.0865123272 -29.583810091 0 -0 0
-18.844448328 -29.583810091 0 -0 0
-15.6023843288 -29.583810091 3.6744133668 1.1484833501 1
-12.3603203297 -29.583810091 2.3095733296 -2.7018568399 1
-9.1182563305 -29.583810091 1.0777883063 -6.6673730763 1
-5.8761923313 -29.583810091 1.6601339951 -9.4803851689 1
-2.6341283321 -29.583810091 2.7659703307 -9.2782129025 1
0.607935667 -29.583810091 3.9208299142 -6.9397157645 1
3.8499996662 -29.583810091 3.7223189811 -4.1821339512 1
7.0920636654 -29.583810091 1.6681621462 -0.9975284595 1
10.3341276646 -29.583810091 -1.8856905142 2.3171527968 1
13.5761916637 -29.583810091 -4.697804937 4.1023443016 1
16.8182556629 -29.583810091 -4.6836584099 3.7116486976 1
20.0603196621 -29.583810091 -2.2381672154 2.1582175372 1
23.3023836613 -29.583810091 0 -0 0
26.5444476604 -29.583810091 0 -0 0
29.7865116596 -29.583810091 0 -0 0
33.0285756588 -29.583810091 0 -0 0
36.270639658 -29.583810091 0 -0 0
39.5127036572 -29.583810091 0 -0 0
42.7547676563 -29.583810091 0 -0 0
-35.0547683239 -32.8258740902 0 -0 0
-31.8127043247 -32.8258740902 0 -0 0
-28.5706403255 -32.8258740902 0 -0 0
-25.3285763264 -32.8258740902 0 -0 0
-22.0865123272 -32.8258740902 0 -0 0
-18.844448328 -32.8258740902 0 -0 0
-15.6023843288 -32.8258740902 0 -0 0
-12.3603203297 -32.8258740902 0 -0 0
-9.1182563305 -32.8258740902 1.547992604 -6.3253636035 1
-5.8761923313 -32.8258740902 1.9189465682 -7.2423026479 1
-2.6341283321 -32.8258740902 2.6925582732 -7.1971933066 1
0.607935667 -32.8258740902 2.124962842 -6.2984159972 1
3.8499996662 -32.8258740902 -0.6831472428 -5.3833224145 1
7.0920636654 -32.8258740902 -3.443062756 -3.4740065479 1
10.3341276646 -32.8258740902 -5.3021589346 -1.2696663564 1
13.5761916637 -32.8258740902 -6.1695923808 0.2756539023 1
16.8182556629 -32.8258740902 -5.8660875976 1.1311778436 1
20.0603196621 -32.8258740902 0 -0 0
23.3023836613 -32.8258740902 0 -0 0
26.5444476604 -32.8258740902 0 -0 0
29.7865116596 -32.8258740902 0 -0 0
33.0285756588 -32.8258740902 0 -0 0
36.270639658 -32.8258740902 0 -0 0
39.5127036572 -32.8258740902 0 -0 0
42.7547676563 -32.8258740902 0 -0 0
-35.0547683239 -36.0679380894 0 -0 0
-31.8127043247 -36.0679380894 0 -0 0
-28.5706403255 -36.0679380894 0 -0 0
-25.3285763264 -36.0679380894 0 -0 0
-22.0865123272 -36.0679380894 0 -0 0
-18.844448328 -36.0679380894 0 -0 0
-15.6023843288 -36.0679380894 0 -0 0
-12.3603203297 -36.0679380894 0 -0 0
-9.1182563305 -36.0679380894 0 -0 0
-5.8761923313 -36.0679380894 0 -0 0
-2.6341283321 -36.0679380894 0 -0 0
0.607935667 -36.0679380894 0 -0 0
3.8499996662 -36.0679380894 0 -0 0
7.0920636654 -36.0679380894 0 -0 0
10.3341276646 -36.0679380894 0 -0 0
13.5761916637 -36.0679380894 0 -0 0
16.8182556629 -36.0679380894 0 -0 0
20.0603196621 -36.0679380894 0 -0 0
23.3023836613 -36.0679380894 0 -0 0
26.5444476604 -36.0679380894 0 -0 0
29.7865116596 -36.0679380894 0 -0 0
33.0285756588 -36.0679380894 0 -0 0
36.270639658 -36.0679380894 0 -0 0
39.5127036572 -36.0679380894 0 -0 0
42.7547676563 -36.0679380894 0 -0 0
-35.0547683239 -39.3100020885 0 -0 0
-31.8127043247 -39.3100020885 0 -0 0
-28.5706403255 -39.3100020885 0 -0 0
-25.3285763264 -39.3100020885 0 -0 0
-22.0865123272 -39.3100020885 0 -0 0
-18.844448328 -39.3100020885 0 -0 0
-15.6023843288 -39.3100020885 0 -0 0
-12.3603203297 -39.3100020885 0 -0 0
-9.1182563305 -39.3100020885 0 -0 0
-5.8761923313 -39.3100020885 0 -0 0
-2.6341283321 -39.3100020885 0 -0 0
0.607935667 -39.3100020885 0 -0 0
3.8499996662 -39.3100020885 0 -0 0
7.0920636654 -39.3100020885 0 -0 0
10.3341276646 -39.3100020885 0 -0 0
13.5761916637 -39.3100020885 0 -0 0
16.8182556629 -39.3100020885 0 -0 0
20.0603196621 -39.3100020885 0 -0 0
23.3023836613 -39.3100020885 0 -0 0
26.5444476604 -39.3100020885 0 -0 0
29.7865116596 -39.3100020885 0 -0 0
33.0285756588 -39.3100020885 0 -0 0
36.270639658 -39.3100020885 0 -0 0
39.5127036572 -39.3100020885 0 -0 0
42.7547676563 -39.3100020885 0 -0 0
-35.0547683239 -42.5520660877 0 -0 0
-31.8127043247 -42.5520660877 0 -0 0
-28.5706403255 -42.5520660877 0 -0 0
-25.3285763264 -42.5520660877 0 -0 0
-22.0865123272 -42.5520660877 0 -0 0
-18.844448328 -42.5520660877 0 -0 0
-15.6023843288 -42.5520660877 0 -0 0
-12.3603203297 -42.5520660877 0 -0 0
-9.1182563305 -42.5520660877 0 -0 0
-5.8761923313 -42.5520660877 0 -0 0
-2.6341283321 -42.5520660877 0 -0 0
0.607935667 -42.5520660877 0 -0 0
3.8499996662 -42.5520660877 0 -0 0
7.0920636654 -42.5520660877 0 -0 0
10.3341276646 -42.5520660877 0 -0 0
13.5761916637 -42.5520660877 0 -0 0
16.8182556629 -42.5520660877 0 -0 0
20.0603196621 -42.5520660877 0 -0 0
23.3023836613 -42.5520660877 0 -0 0
26.5444476604 -42.5520660877 0 -0 0
29.7865116596 -42.5520660877 0 -0 0
33.0285756588 -42.5520660877 0 -0 0
36.270639658 -42.5520660877 0 -0 0
39.5127036572 -42.5520660877 0 -0 0
42.7547676563 -42.5520660877 0 -0 0
