TITLE = "B00080"
VARIABLES = "x", "y", "Vx", "Vy", "isValid"
ZONE T="Frame 0", I=25, J=25, F=POINT
-35.0547683239 35.2574698925 0 -0 0
-31.8127043247 35.2574698925 0 -0 0
-28.5706403255 35.2574698925 0 -0 0
-25.3285763264 35.2574698925 0 -0 0
-22.0865123272 35.2574698925 0 -0 0
-18.844448328 35.2574698925 0 -0 0
-15.6023843288 35.2574698925 0 -0 0
-12.3603203297 35.2574698925 0 -0 0
-9.1182563305 35.2574698925 0 -0 0
-5.8761923313 35.2574698925 0 -0 0
-2.6341283321 35.2574698925 0 -0 0
0.607935667 35.2574698925 0 -0 0
3.8499996662 35.2574698925 0 -0 0
7.0920636654 35.2574698925 0 -0 0
10.3341276646 35.2574698925 0 -0 0
13.5761916637 35.2574698925 0 -0 0
16.8182556629 35.2574698925 0 -0 0
20.0603196621 35.2574698925 0 -0 0
23.3023836613 35.2574698925 0 -0 0
26.5444476604 35.2574698925 0 -0 0
29.7865116596 35.2574698925 0 -0 0
33.0285756588 35.2574698925 0 -0 0
36.270639658 35.2574698925 0 -0 0
39.5127036572 35.2574698925 0 -0 0
42.7547676563 35.2574698925 0 -0 0
-35.0547683239 32.0154058933 0 -0 0
-31.8127043247 32.0154058933 0 -0 0
-28.5706403255 32.0154058933 0 -0 0
-25.3285763264 32.0154058933 0 -0 0
-22.0865123272 32.0154058933 0 -0 0
-18.844448328 32.0154058933 0 -0 0
-15.6023843288 32.0154058933 0 -0 0
-12.3603203297 32.0154058933 0 -0 0
-9.1182563305 32.0154058933 0 -0 0
-5.8761923313 32.0154058933 0 -0 0
-2.6341283321 32.0154058933 0 -0 0
0.607935667 32.0154058933 0 -0 0
3.8499996662 32.0154058933 0 -0 0
7.0920636654 32.0154058933 0 -0 0
10.3341276646 32.0154058933 0 -0 0
13.5761916637 32.0154058933 0 -0 0
16.8182556629 32.0154058933 0 -0 0
20.0603196621 32.0154058933 0 -0 0
23.3023836613 32.0154058933 0 -0 0
26.5444476604 32.0154058933 0 -0 0
29.7865116596 32.0154058933 0 -0 0
33.0285756588 32.0154058933 0 -0 0
36.270639658 32.0154058933 0 -0 0
39.5127036572 32.0154058933 0 -0 0
42.7547676563 32.0154058933 0 -0 0
-35.0547683239 28.7733418941 0 -0 0
-31.8127043247 28.7733418941 0 -0 0
-28.5706403255 28.7733418941 0 -0 0
-25.3285763264 28.7733418941 0 -0 0
-22.0865123272 28.7733418941 0 -0 0
-18.844448328 28.7733418941 0 -0 0
-15.6023843288 28.7733418941 0 -0 0
-12.3603203297 28.7733418941 0 -0 0
-9.1182563305 28.7733418941 0 -0 0
-5.8761923313 28.7733418941 0 -0 0
-2.6341283321 28.7733418941 0 -0 0
0.607935667 28.7733418941 0 -0 0
3.8499996662 28.7733418941 0 -0 0
7.0920636654 28.7733418941 0 -0 0
10.3341276646 28.7733418941 0 -0 0
13.5761916637 28.7733418941 0 -0 0
16.8182556629 28.7733418941 0 -0 0
20.0603196621 28.7733418941 0 -0 0
23.3023836613 28.7733418941 0 -0 0
26.5444476604 28.7733418941 0 -0 0
29.7865116596 28.7733418941 0 -0 0
33.0285756588 28.7733418941 0 -0 0
36.270639658 28.7733418941 0 -0 0
39.5127036572 28.7733418941 0 -0 0
42.7547676563 28.7733418941 0 -0 0
-35.0547683239 25.531277895 0 -0 0
-31.8127043247 25.531277895 0 -0 0
-28.5706403255 25.531277895 0 -0 0
-25.3285763264 25.531277895 0 -0 0
-22.0865123272 25.531277895 0 -0 0
-18.844448328 25.531277895 0 -0 0
-15.6023843288 25.531277895 0 -0 0
-12.3603203297 25.531277895 0 -0 0
-9.1182563305 25.531277895 5.1315956355 -2.4990270976 1
-5.8761923313 25.531277895 4.8556840079 -1.3090395786 1
-2.6341283321 25.531277895 2.4587309936 -0.4352440903 1
0.607935667 25.531277895 -0.2811473554 -1.3146129515 1
3.8499996662 25.531277895 -1.6732293155 -3.3134700966 1
7.0920636654 25.531277895 -1.5049219666 -4.168894756 1
10.3341276646 25.531277895 -1.2960208001 -3.9501972735 1
13.5761916637 25.531277895 -2.2727833614 -3.5016821333 1
16.8182556629 25.531277895 0 -0 0
20.0603196621 25.531277895 0 -0 0
23.3023836613 25.531277895 0 -0 0
26.5444476604 25.531277895 0 -0 0
29.7865116596 25.531277895 0 -0 0
33.0285756588 25.531277895 0 -0 0
36.270639658 25.531277895 0 -0 0
39.5127036572 25.531277895 0 -0 0
42.7547676563 25.531277895 0 -0 0
-35.0547683239 22.2892138958 0 -0 0
-31.8127043247 22.2892138958 0 -0 0
-28.5706403255 22.2892138958 0 -0 0
-25.3285763264 22.2892138958 0 -0 0
-22.0865123272 22.2892138958 0 -0 0
-18.844448328 22.2892138958 0 -0 0
-15.6023843288 22.2892138958 2.941585702 -3.5670208995 1
-12.3603203297 22.2892138958 4.0621650486 -2.7060797829 1
-9.1182563305 22.2892138958 5.1960889677 -1.2814165309 1
-5.8761923313 22.2892138958 5.5053034501 -0.0965695056 1
-2.6341283321 22.2892138958 3.378996368 1.0770711971 1
0.607935667 22.2892138958 0.6212753978 0.0177675348 1
3.8499996662 22.2892138958 -1.1405812593 -2.2213217911 1
7.0920636654 22.2892138958 -1.3874179572 -3.4529008908 1
10.3341276646 22.2892138958 -1.3111602593 -3.5788687518 1
13.5761916637 22.2892138958 -1.7312664001 -3.9448973078 1
16.8182556629 22.2892138958 -0.4667225437 -4.4885938283 1
20.0603196621 22.2892138958 1.9498349539 -3.8599601727 1
23.3023836613 22.2892138958 0 -0 0
26.5444476604 22.2892138958 0 -0 0
29.7865116596 22.2892138958 0 -0 0
33.0285756588 22.2892138958 0 -0 0
36.270639658 22.2892138958 0 -0 0
39.5127036572 22.2892138958 0 -0 0
42.7547676563 22.2892138958 0 -0 0
-35.0547683239 19.0471498966 0 -0 0
-31.8127043247 19.0471498966 0 -0 0
-28.5706403255 19.0471498966 0 -0 0
-25.3285763264 19.0471498966 0 -0 0
-22.0865123272 19.0471498966 0 -0 0
-18.844448328 19.0471498966 0.1512748535 -2.1202986125 1
-15.6023843288 19.0471498966 1.3257535077 -1.0588297498 1
-12.3603203297 19.0471498966 2.8431297746 -0.4692540147 1
-9.1182563305 19.0471498966 4.3077114028 0.527733367 1
-5.8761923313 19.0471498966 4.832921904 1.2263398997 1
-2.6341283321 19.0471498966 3.8002942689 1.6103205683 1
0.607935667 19.0471498966 1.6130602275 0.2038209948 1
3.8499996662 19.0471498966 0.0766677145 -1.4473100146 1
7.0920636654 19.0471498966 -0.9312700573 -2.1393207276 1
10.3341276646 19.0471498966 -1.1784094508 -2.6325194726 1
13.5761916637 19.0471498966 -0.3680488414 -4.0155230563 1
16.8182556629 19.0471498966 2.0601429609 -4.5514219574 1
20.0603196621 19.0471498966 4.6246809309 -3.8580114472 1
23.3023836613 19.0471498966 6.8365522791 -2.6715522566 1
26.5444476604 19.0471498966 0 -0 0
29.7865116596 19.0471498966 0 -0 0
33.0285756588 19.0471498966 0 -0 0
36.270639658 19.0471498966 0 -0 0
39.5127036572 19.0471498966 0 -0 0
42.7547676563 19.0471498966 0 -0 0
-35.0547683239 15.8050858974 0 -0 0
-31.8127043247 15.8050858974 0 -0 0
-28.5706403255 15.8050858974 0 -0 0
-25.3285763264 15.8050858974 0 -0 0
-22.0865123272 15.8050858974 -1.3274819674 -5.0534600172 1
-18.844448328 15.8050858974 -1.5029259874 -2.254506587 1
-15.6023843288 15.8050858974 -0.5860752607 -0.4037471052 1
-12.3603203297 15.8050858974 1.1572580497 0.5713716907 1
-9.1182563305 15.8050858974 2.5347691806 0.8982127558 1
-5.8761923313 15.8050858974 3.2397591177 0.8311362452 1
-2.6341283321 15.8050858974 3.7293077012 0.22265351 1
0.607935667 15.8050858974 3.0335740591 -0.9743222008 1
3.8499996662 15.8050858974 1.9562774633 -0.7324324998 1
7.0920636654 15.8050858974 0.2377392803 0.1184445076 1
10.3341276646 15.8050858974 -0.1993828624 -0.8659971141 1
13.5761916637 15.8050858974 1.7156396085 -3.080381515 1
16.8182556629 15.8050858974 4.7997573381 -4.8467858146 1
20.0603196621 15.8050858974 6.7808683696 -4.5997001666 1
23.3023836613 15.8050858974 7.1693579946 -4.1925198065 1
26.5444476604 15.8050858974 6.1726232618 -4.4383071094 1
29.7865116596 15.8050858974 0 -0 0
33.0285756588 15.8050858974 0 -0 0
36.270639658 15.8050858974 0 -0 0
39.5127036572 15.8050858974 0 -0 0
42.7547676563 15.8050858974 0 -0 0
-35.0547683239 12.5630218983 0 -0 0
-31.8127043247 12.5630218983 0 -0 0
-28.5706403255 12.5630218983 0 -0 0
-25.3285763264 12.5630218983 0 -0 0
-22.0865123272 12.5630218983 -0.0378290124 -6.0249965883 1
-18.844448328 12.5630218983 -1.6349396076 -2.9959262772 1
-15.6023843288 12.5630218983 -1.4047110086 -0.8457131888 1
-12.3603203297 12.5630218983 0.4442098428 0.3672522463 1
-9.1182563305 12.5630218983 1.8147856216 0.7087281899 1
-5.8761923313 12.5630218983 2.7145377467 0.3722615185 1
-2.6341283321 12.5630218983 3.7117785322 -1.1304145375 1
0.607935667 12.5630218983 3.8954164687 -2.3537484662 1
3.8499996662 12.5630218983 3.1892927441 -0.8831914309 1
7.0920636654 12.5630218983 1.4971836786 0.6437086505 1
10.3341276646 12.5630218983 0.836766081 -0.6701162358 1
13.5761916637 12.5630218983 3.3406743525 -3.4337484884 1
16.8182556629 12.5630218983 6.7277503525 -5.6321475431 1
20.0603196621 12.5630218983 8.4366847632 -5.7988103718 1
23.3023836613 12.5630218983 7.4947818632 -5.7988055408 1
26.5444476604 12.5630218983 5.2779245677 -5.8731807892 1
29.7865116596 12.5630218983 3.405298425 -5.599442531 1
33.0285756588 12.5630218983 0 -0 0
36.270639658 12.5630218983 0 -0 0
39.5127036572 12.5630218983 0 -0 0
42.7547676563 12.5630218983 0 -0 0
-35.0547683239 9.3209578991 0 -0 0
-31.8127043247 9.3209578991 0 -0 0
-28.5706403255 9.3209578991 0 -0 0
-25.3285763264 9.3209578991 3.5193740484 -6.4034497035 1
-22.0865123272 9.3209578991 1.7675530331 -5.9332506897 1
-18.844448328 9.3209578991 0.5755736489 -4.2905493937 1
-15.6023843288 9.3209578991 0.4676221761 -1.8536852497 1
-12.3603203297 9.3209578991 1.4172222247 -0.4106565659 1
-9.1182563305 9.3209578991 2.3048174612 0.0692923121 1
-5.8761923313 9.3209578991 3.4577684774 -0.0268477653 1
-2.6341283321 9.3209578991 4.2696170506 -1.7827761299 1
0.607935667 9.3209578991 4.2401367655 -3.2405384268 1
3.8499996662 9.3209578991 3.2447577465 -2.3169036957 1
7.0920636654 9.3209578991 1.9978782532 -1.3722526821 1
10.3341276646 9.3209578991 1.864219056 -2.3511504172 1
13.5761916637 9.3209578991 4.3746009367 -4.5292912116 1
16.8182556629 9.3209578991 7.7053921652 -6.5177735221 1
20.0603196621 9.3209578991 9.0487850503 -6.9094540568 1
23.3023836613 9.3209578991 7.4721296657 -7.2022435673 1
26.5444476604 9.3209578991 5.044322083 -6.8841882603 1
29.7865116596 9.3209578991 3.4945457641 -6.3890875907 1
33.0285756588 9.3209578991 0 -0 0
36.270639658 9.3209578991 0 -0 0
39.5127036572 9.3209578991 0 -0 0
42.7547676563 9.3209578991 0 -0 0
-35.0547683239 6.0788938999 0 -0 0
-31.8127043247 6.0788938999 0 -0 0
-28.5706403255 6.0788938999 0 -0 0
-25.3285763264 6.0788938999 2.53508803 -1.5254456329 1
-22.0865123272 6.0788938999 3.5819606249 -2.3251530184 1
-18.844448328 6.0788938999 3.9907856561 -2.8319473996 1
-15.6023843288 6.0788938999 4.0884954881 -1.0852260123 1
-12.3603203297 6.0788938999 2.7750031895 0.1773897827 1
-9.1182563305 6.0788938999 2.4332890147 0.8071721152 1
-5.8761923313 6.0788938999 3.8000300707 0.8117992059 1
-2.6341283321 6.0788938999 5.0319183578 -0.9060884268 1
0.607935667 6.0788938999 5.1220482696 -2.8395484556 1
3.8499996662 6.0788938999 3.6007588509 -3.9037989473 1
7.0920636654 6.0788938999 2.4210567919 -4.18308748 1
10.3341276646 6.0788938999 2.6022106621 -4.0274050279 1
13.5761916637 6.0788938999 4.6051172852 -5.1115660952 1
16.8182556629 6.0788938999 7.1386753815 -6.743662629 1
20.0603196621 6.0788938999 8.1005335444 -7.9272231886 1
23.3023836613 6.0788938999 6.8386888117 -8.0982490609 1
26.5444476604 6.0788938999 5.2739021133 -7.1957270825 1
29.7865116596 6.0788938999 4.1267229962 -6.7323646107 1
33.0285756588 6.0788938999 3.6927133906 -6.4691604607 1
36.270639658 6.0788938999 0 -0 0
39.5127036572 6.0788938999 0 -0 0
42.7547676563 6.0788938999 0 -0 0
-35.0547683239 2.8368299007 0 -0 0
-31.8127043247 2.8368299007 0 -0 0
-28.5706403255 2.8368299007 0.7482535147 3.6224611428 1
-25.3285763264 2.8368299007 1.9885591545 2.3022881037 1
-22.0865123272 2.8368299007 5.3837928382 1.3874114655 1
-18.844448328 2.8368299007 7.1051025917 0.1142425589 1
-15.6023843288 2.8368299007 7.0344001503 0.698834196 1
-12.3603203297 2.8368299007 3.6343787434 1.3192657072 1
-9.1182563305 2.8368299007 1.5370108687 1.4667587719 1
-5.8761923313 2.8368299007 2.3501134018 1.2320169138 1
-2.6341283321 2.8368299007 4.6142105322 0.2828247871 1
0.607935667 2.8368299007 5.9871827391 -1.2573509488 1
3.8499996662 2.8368299007 4.8319556937 -3.4073214279 1
7.0920636654 2.8368299007 3.2569232405 -4.3989989554 1
10.3341276646 2.8368299007 3.3422846024 -3.9276042564 1
13.5761916637 2.8368299007 4.6532946462 -4.595255599 1
16.8182556629 2.8368299007 6.1834025459 -6.6207932838 1
20.0603196621 2.8368299007 6.7769135499 -8.5267699879 1
23.3023836613 2.8368299007 6.090154794 -8.5344435096 1
26.5444476604 2.8368299007 5.2590852778 -7.2302123371 1
29.7865116596 2.8368299007 4.2035753663 -6.7198123307 1
33.0285756588 2.8368299007 3.6333738847 -6.4960102382 1
36.270639658 2.8368299007 0 -0 0
39.5127036572 2.8368299007 0 -0 0
42.7547676563 2.8368299007 0 -0 0
-35.0547683239 -0.4052340984 0 -0 0
-31.8127043247 -0.4052340984 0 -0 0
-28.5706403255 -0.4052340984 1.0882741795 2.1089639085 1
-25.3285763264 -0.4052340984 2.7308066152 3.0286657106 1
-22.0865123272 -0.4052340984 6.7240980774 3.0059920753 1
-18.844448328 -0.4052340984 8.5173029382 2.6454860153 1
-15.6023843288 -0.4052340984 8.3210613917 2.557747776 1
-12.3603203297 -0.4052340984 4.4304394398 2.6479208653 1
-9.1182563305 -0.4052340984 0.9638978481 1.6844180312 1
-5.8761923313 -0.4052340984 0.1057291796 0.315070453 1
-2.6341283321 -0.4052340984 2.3860198915 -0.5671826405 1
0.607935667 -0.4052340984 5.2185062553 -1.5531745108 1
3.8499996662 -0.4052340984 5.7757131137 -3.2758202011 1
7.0920636654 -0.4052340984 4.3940133101 -3.6497586984 1
10.3341276646 -0.4052340984 4.0768342351 -2.918498408 1
13.5761916637 -0.4052340984 4.5289907805 -3.609128346 1
16.8182556629 -0.4052340984 5.3482767578 -6.1441744062 1
20.0603196621 -0.4052340984 6.0329678236 -8.2200604058 1
23.3023836613 -0.4052340984 5.8393736934 -8.0189829765 1
26.5444476604 -0.4052340984 5.0426366498 -6.9660782096 1
29.7865116596 -0.4052340984 3.6372686182 -6.7339063201 1
33.0285756588 -0.4052340984 2.8370335912 -6.8133131088 1
36.270639658 -0.4052340984 0 -0 0
39.5127036572 -0.4052340984 0 -0 0
42.7547676563 -0.4052340984 0 -0 0
-35.0547683239 -3.6472980976 0 -0 0
-31.8127043247 -3.6472980976 0 -0 0
-28.5706403255 -3.6472980976 2.5128926688 1.280356115 1
-25.3285763264 -3.6472980976 3.8714031225 1.0934001518 1
-22.0865123272 -3.6472980976 6.1915809125 2.2617889445 1
-18.844448328 -3.6472980976 7.0885163835 3.9254958043 1
-15.6023843288 -3.6472980976 7.4971907463 4.7798509896 1
-12.3603203297 -3.6472980976 5.6471171606 3.9078485764 1
-9.1182563305 -3.6472980976 1.9874324627 0.6240859753 1
-5.8761923313 -3.6472980976 -1.3001755046 -2.4407481585 1
-2.6341283321 -3.6472980976 -0.7083781651 -3.4897929151 1
0.607935667 -3.6472980976 2.4856361772 -3.3859123204 1
3.8499996662 -3.6472980976 5.1011974506 -3.6950437691 1
7.0920636654 -3.6472980976 4.7646301574 -3.5986953879 1
10.3341276646 -3.6472980976 4.5941671027 -3.1605126595 1
13.5761916637 -3.6472980976 4.7902498284 -3.4364538773 1
16.8182556629 -3.6472980976 5.4117996525 -5.0038529669 1
20.0603196621 -3.6472980976 5.9501189105 -6.7441608312 1
23.3023836613 -3.6472980976 5.2681543696 -7.7050225897 1
26.5444476604 -3.6472980976 4.0822495421 -8.0411889056 1
29.7865116596 -3.6472980976 2.5734517133 -7.7906867982 1
33.0285756588 -3.6472980976 1.980609508 -7.3486993146 1
36.270639658 -3.6472980976 0 -0 0
39.5127036572 -3.6472980976 0 -0 0
42.7547676563 -3.6472980976 0 -0 0
-35.0547683239 -6.8893620968 0 -0 0
-31.8127043247 -6.8893620968 0 -0 0
-28.5706403255 -6.8893620968 3.825082395 6.361632724 1
-25.3285763264 -6.8893620968 4.8510543507 2.8323812884 1
-22.0865123272 -6.8893620968 5.2597356581 -0.1244500427 1
-18.844448328 -6.8893620968 5.0973519334 1.5466687449 1
-15.6023843288 -6.8893620968 5.5665334069 4.3348081678 1
-12.3603203297 -6.8893620968 5.2225256903 3.9958250469 1
-9.1182563305 -6.8893620968 2.0883197679 0.1458612637 1
-5.8761923313 -6.8893620968 -2.3626783633 -3.6896523154 1
-2.6341283321 -6.8893620968 -3.3419132153 -4.8444883476 1
0.607935667 -6.8893620968 -0.3134021361 -4.1214109529 1
3.8499996662 -6.8893620968 3.4315409997 -3.4333662314 1
7.0920636654 -6.8893620968 4.7206138417 -3.307058989 1
10.3341276646 -6.8893620968 5.3361327017 -3.2002302451 1
13.5761916637 -6.8893620968 5.7001663353 -3.3817253083 1
16.8182556629 -6.8893620968 6.0530094415 -4.1683582073 1
20.0603196621 -6.8893620968 5.6084862597 -5.7657635628 1
23.3023836613 -6.8893620968 3.9761853121 -8.1026229743 1
26.5444476604 -6.8893620968 2.5196532728 -9.4808423071 1
29.7865116596 -6.8893620968 1.4898062098 -9.0476213707 1
33.0285756588 -6.8893620968 1.4999133738 -7.662784101 1
36.270639658 -6.8893620968 0 -0 0
39.5127036572 -6.8893620968 0 -0 0
42.7547676563 -6.8893620968 0 -0 0
-35.0547683239 -10.131426096 0 -0 0
-31.8127043247 -10.131426096 0 -0 0
-28.5706403255 -10.131426096 4.9110774504 12.5177923655 1
-25.3285763264 -10.131426096 6.4085066068 5.0372657281 1
-22.0865123272 -10.131426096 5.8364859323 -0.835795568 1
-18.844448328 -10.131426096 4.6896866566 -1.2431025922 1
-15.6023843288 -10.131426096 3.4777237402 1.4071349888 1
-12.3603203297 -10.131426096 2.7797635871 2.4948195535 1
-9.1182563305 -10.131426096 0.3382358931 0.6213891917 1
-5.8761923313 -10.131426096 -3.1699685374 -1.600688508 1
-2.6341283321 -10.131426096 -4.1456691731 -2.1131062334 1
0.607935667 -10.131426096 -1.1886083293 -1.5790195805 1
3.8499996662 -10.131426096 2.5722321747 -1.5691320784 1
7.0920636654 -10.131426096 5.1564260334 -2.3344435837 1
10.3341276646 -10.131426096 6.194410701 -3.0147350711 1
13.5761916637 -10.131426096 6.5899174286 -3.6773041473 1
16.8182556629 -10.131426096 6.2541677909 -4.2554910555 1
20.0603196621 -10.131426096 4.7643810563 -5.5163242868 1
23.3023836613 -10.131426096 2.7227118861 -8.1378745545 1
26.5444476604 -10.131426096 1.5049219666 -9.9032670508 1
29.7865116596 -10.131426096 1.3815776686 -9.3520054053 1
33.0285756588 -10.131426096 1.897479639 -7.4987523838 1
36.270639658 -10.131426096 0 -0 0
39.5127036572 -10.131426096 0 -0 0
42.7547676563 -10.131426096 0 -0 0
-35.0547683239 -13.3734900951 0 -0 0
-31.8127043247 -13.3734900951 0 -0 0
-28.5706403255 -13.3734900951 0 -0 0
-25.3285763264 -13.3734900951 7.8819622731 8.1046363151 1
-22.0865123272 -13.3734900951 7.3325853417 0.2285409579 1
-18.844448328 -13.3734900951 5.3824033069 -3.3251742251 1
-15.6023843288 -13.3734900951 2.3623885002 -2.5729257326 1
-12.3603203297 -13.3734900951 -0.0590504826 -0.089048096 1
-9.1182563305 -13.3734900951 -2.1504063305 1.0930973807 1
-5.8761923313 -13.3734900951 -3.7176337668 1.0215441458 1
-2.6341283321 -13.3734900951 -3.4408187325 1.0346781147 1
0.607935667 -13.3734900951 -0.5527152636 1.0521536893 1
3.8499996662 -13.3734900951 2.4190214094 0.4106608686 1
7.0920636654 -13.3734900951 5.1879697815 -0.7356360155 1
10.3341276646 -13.3734900951 6.0118404269 -2.0124980724 1
13.5761916637 -13.3734900951 5.9363510171 -3.355863179 1
16.8182556629 -13.3734900951 5.120049422 -4.0876301259 1
20.0603196621 -13.3734900951 3.4387211503 -4.7914349458 1
23.3023836613 -13.3734900951 1.9656497035 -6.8248871009 1
26.5444476604 -13.3734900951 1.4693719179 -8.6289582047 1
29.7865116596 -13.3734900951 2.1779668765 -8.4846709957 1
33.0285756588 -13.3734900951 3.0074788315 -6.9789209567 1
36.270639658 -13.3734900951 0 -0 0
39.5127036572 -13.3734900951 0 -0 0
42.7547676563 -13.3734900951 0 -0 0
-35.0547683239 -16.6155540943 0 -0 0
-31.8127043247 -16.6155540943 0 -0 0
-28.5706403255 -16.6155540943 0 -0 0
-25.3285763264 -16.6155540943 7.7698305442 7.5438828608 1
-22.0865123272 -16.6155540943 6.3018919389 2.2036873956 1
-18.844448328 -16.6155540943 4.1033322517 -3.2835326732 1
-15.6023843288 -16.6155540943 -0.0654897366 -5.0193639642 1
-12.3603203297 -16.6155540943 -3.4742176045 -2.8904698539 1
-9.1182563305 -16.6155540943 -5.5022309012 -0.5420311286 1
-5.8761923313 -16.6155540943 -4.5676219834 -0.0431552469 1
-2.6341283321 -16.6155540943 -2.2689731713 -0.1699349227 1
0.607935667 -16.6155540943 0.6587321644 0.0313374211 1
3.8499996662 -16.6155540943 2.7190188491 -0.0275133772 1
7.0920636654 -16.6155540943 4.6493546216 -0.6101532223 1
10.3341276646 -16.6155540943 5.1305533361 -1.6912438543 1
13.5761916637 -16.6155540943 4.5645729859 -2.8754033134 1
16.8182556629 -16.6155540943 3.456583058 -3.3762782976 1
20.0603196621 -16.6155540943 2.0309419709 -3.8330358158 1
23.3023836613 -16.6155540943 1.3523531273 -5.1045622781 1
26.5444476604 -16.6155540943 1.7248700876 -6.5729121266 1
29.7865116596 -16.6155540943 2.9113149361 -6.7757390005 1
33.0285756588 -16.6155540943 0 -0 0
36.270639658 -16.6155540943 0 -0 0
39.5127036572 -16.6155540943 0 -0 0
42.7547676563 -16.6155540943 0 -0 0
-35.0547683239 -19.8576180935 0 -0 0
-31.8127043247 -19.8576180935 0 -0 0
-28.5706403255 -19.8576180935 0 -0 0
-25.3285763264 -19.8576180935 0 -0 0
-22.0865123272 -19.8576180935 1.938173399 3.2720187673 1
-18.844448328 -19.8576180935 -1.3244618052 -2.5633988987 1
-15.6023843288 -19.8576180935 -5.5642616049 -5.6850916424 1
-12.3603203297 -19.8576180935 -9.0186718974 -5.2684206813 1
-9.1182563305 -19.8576180935 -9.649598189 -4.3051563804 1
-5.8761923313 -19.8576180935 -6.0560777632 -4.5089171569 1
-2.6341283321 -19.8576180935 -1.5066504263 -4.3705256426 1
0.607935667 -19.8576180935 1.5948740354 -2.6628198287 1
3.8499996662 -19.8576180935 2.7551508885 -1.2272116781 1
7.0920636654 -19.8576180935 3.4540775539 -1.2414943804 1
10.3341276646 -19.8576180935 3.4941450888 -2.1214908255 1
13.5761916637 -19.8576180935 2.7285477966 -2.8886941405 1
16.8182556629 -19.8576180935 1.8308784586 -3.1424680776 1
20.0603196621 -19.8576180935 0.8760886527 -3.6815983484 1
23.3023836613 -19.8576180935 0.9191408717 -4.8288659342 1
26.5444476604 -19.8576180935 1.7345090925 -5.8681625343 1
29.7865116596 -19.8576180935 2.8770730456 -5.8433762197 1
33.0285756588 -19.8576180935 0 -0 0
36.270639658 -19.8576180935 0 -0 0
39.5127036572 -19.8576180935 0 -0 0
42.7547676563 -19.8576180935 0 -0 0
-35.0547683239 -23.0996820927 0 -0 0
-31.8127043247 -23.0996820927 0 -0 0
-28.5706403255 -23.0996820927 0 -0 0
-25.3285763264 -23.0996820927 0 -0 0
-22.0865123272 -23.0996820927 -2.7434854084 2.1987305856 1
-18.844448328 -23.0996820927 -6.0006311792 -2.4799913952 1
-15.6023843288 -23.0996820927 -9.6923391071 -5.7185243317 1
-12.3603203297 -23.0996820927 -12.4749047042 -7.2013093627 1
-9.1182563305 -23.0996820927 -11.6130233442 -7.811997171 1
-5.8761923313 -23.0996820927 -6.8880337775 -8.1717021823 1
-2.6341283321 -23.0996820927 -1.9254080998 -7.1170214001 1
0.607935667 -23.0996820927 0.9482238028 -4.4920773185 1
3.8499996662 -23.0996820927 1.6349673862 -2.2342582907 1
7.0920636654 -23.0996820927 1.9374815018 -1.9125982643 1
10.3341276646 -23.0996820927 1.3407499979 -2.5471732077 1
13.5761916637 -23.0996820927 0.3395048368 -3.2218262539 1
16.8182556629 -23.0996820927 -0.1897959234 -3.7344802479 1
20.0603196621 -23.0996820927 -0.0521839446 -4.603880536 1
23.3023836613 -23.0996820927 0.9168348748 -5.7828485771 1
26.5444476604 -23.0996820927 1.8695359303 -6.367766348 1
29.7865116596 -23.0996820927 0 -0 0
33.0285756588 -23.0996820927 0 -0 0
36.270639658 -23.0996820927 0 -0 0
39.5127036572 -23.0996820927 0 -0 0
42.7547676563 -23.0996820927 0 -0 0
-35.0547683239 -26.3417460918 0 -0 0
-31.8127043247 -26.3417460918 0 -0 0
-28.5706403255 -26.3417460918 0 -0 0
-25.3285763264 -26.3417460918 0 -0 0
-22.0865123272 -26.3417460918 0 -0 0
-18.844448328 -26.3417460918 -8.0536222209 -2.7366582265 1
-15.6023843288 -26.3417460918 -9.6559166007 -5.3240792277 1
-12.3603203297 -26.3417460918 -10.3397127142 -7.2521428963 1
-9.1182563305 -26.3417460918 -8.2521253036 -8.6363678302 1
-5.8761923313 -26.3417460918 -5.1757997584 -8.5267567025 1
-2.6341283321 -26.3417460918 -2.6594553032 -6.9729491729 1
0.607935667 -26.3417460918 -0.9133027722 -4.6196557314 1
3.8499996662 -26.3417460918 0.2242037492 -2.8469903887 1
7.0920636654 -26.3417460918 1.0447675397 -2.4671472895 1
10.3341276646 -26.3417460918 -0.0103728046 -2.8606480738 1
13.5761916637 -26.3417460918 -1.2125316972 -3.6168882228 1
16.8182556629 -26.3417460918 -1.412213028 -4.4432858101 1
20.0603196621 -26.3417460918 -0.4975468047 -5.3496469649 1
23.3023836613 -26.3417460918 0.9640857307 -6.5834649552 1
26.5444476604 -26.3417460918 0 -0 0
29.7865116596 -26.3417460918 0 -0 0
33.0285756588 -26.3417460918 0 -0 0
36.270639658 -26.3417460918 0 -0 0
39.5127036572 -26.3417460918 0 -0 0
42.7547676563 -26.3417460918 0 -0 0
-35.0547683239 -29.583810091 0 -0 0
-31.8127043247 -29.583810091 0 -0 0
-28.5706403255 -29.583810091 0 -0 0
-25.3285763264 -29.583810091 0 -0 0
-22.0865123272 -29.583810091 0 -0 0
-18.844448328 -29.583810091 0 -0 0
-15.6023843288 -29.583810091 -5.2407931045 -4.4933774753 1
-12.3603203297 -29.583810091 -3.4421720309 -6.1693091603 1
-9.1182563305 -29.583810091 -1.478984654 -7.2941343975 1
-5.8761923313 -29.583810091 -1.1892073797 -7.0757817313 1
-2.6341283321 -29.583810091 -1.738388427 -5.1849938537 1
0.607935667 -29.583810091 -1.6368741419 -3.2564658003 1
3.8499996662 -29.583810091 -0.4250445324 -2.2269495134 1
7.0920636654 -29.583810091 0.312828845 -2.3865137155 1
10.3341276646 -29.583810091 -0.8097937911 -3.043197514 1
13.5761916637 -29.583810091 -1.9362061042 -3.6956772408 1
16.8182556629 -29.583810091 -1.9782469727 -4.3959276143 1
20.0603196621 -29.583810091 -0.8592035986 -5.2712836833 1
23.3023836613 -29.583810091 0 -0 0
26.5444476604 -29.583810091 0 -0 0
29.7865116596 -29.583810091 0 -0 0
33.0285756588 -29.583810091 0 -0 0
36.270639658 -29.583810091 0 -0 0
39.5127036572 -29.583810091 0 -0 0
42.7547676563 -29.583810091 0 -0 0
-35.0547683239 -32.8258740902 0 -0 0
-31.8127043247 -32.8258740902 0 -0 0
-28.5706403255 -32.8258740902 0 -0 0
-25.3285763264 -32.8258740902 0 -0 0
-22.0865123272 -32.8258740902 0 -0 0
-18.844448328 -32.8258740902 0 -0 0
-15.6023843288 -32.8258740902 0 -0 0
-12.3603203297 -32.8258740902 0 -0 0
-9.1182563305 -32.8258740902 3.1039926762 -5.58787337 1
-5.8761923313 -32.8258740902 2.1178192262 -5.9627358059 1
-2.6341283321 -32.8258740902 0.2930875638 -3.9717193068 1
0.607935667 -32.8258740902 -0.8402637625 -1.2449706241 1
3.8499996662 -32.8258740902 -0.7021471652 -0.0679868525 1
7.0920636654 -32.8258740902 -0.5184126453 -1.0736105034 1
10.3341276646 -32.8258740902 -0.9139569268 -2.8834005156 1
13.5761916637 -32.8258740902 -1.1803689706 -3.6279172118 1
16.8182556629 -32.8258740902 -1.1689333429 -4.1179431636 1
20.0603196621 -32.8258740902 0 -0 0
23.3023836613 -32.8258740902 0 -0 0
26.5444476604 -32.8258740902 0 -0 0
29.7865116596 -32.8258740902 0 -0 0
33.0285756588 -32.8258740902 0 -0 0
36.270639658 -32.8258740902 0 -0 0
39.5127036572 -32.8258740902 0 -0 0
42.7547676563 -32.8258740902 0 -0 0
-35.0547683239 -36.0679380894 0 -0 0
-31.8127043247 -36.0679380894 0 -0 0
-28.5706403255 -36.0679380894 0 -0 0
-25.3285763264 -36.0679380894 0 -0 0
-22.0865123272 -36.0679380894 0 -0 0
-18.844448328 -36.0679380894 0 -0 0
-15.6023843288 -36.0679380894 0 -0 0
-12.3603203297 -36.0679380894 0 -0 0
-9.1182563305 -36.0679380894 0 -0 0
-5.8761923313 -36.0679380894 0 -0 0
-2.6341283321 -36.0679380894 0 -0 0
0.607935667 -36.0679380894 0 -0 0
3.8499996662 -36.0679380894 0 -0 0
7.0920636654 -36.0679380894 0 -0 0
10.3341276646 -36.0679380894 0 -0 0
13.5761916637 -36.0679380894 0 -0 0
16.8182556629 -36.0679380894 0 -0 0
20.0603196621 -36.0679380894 0 -0 0
23.3023836613 -36.0679380894 0 -0 0
26.5444476604 -36.0679380894 0 -0 0
29.7865116596 -36.0679380894 0 -0 0
33.0285756588 -36.0679380894 0 -0 0
36.270639658 -36.0679380894 0 -0 0
39.5127036572 -36.0679380894 0 -0 0
42.7547676563 -36.0679380894 0 -0 0
-35.0547683239 -39.3100020885 0 -0 0
-31.8127043247 -39.3100020885 0 -0 0
-28.5706403255 -39.3100020885 0 -0 0
-25.3285763264 -39.3100020885 0 -0 0
-22.0865123272 -39.3100020885 0 -0 0
-18.844448328 -39.3100020885 0 -0 0
-15.6023843288 -39.3100020885 0 -0 0
-12.3603203297 -39.3100020885 0 -0 0
-9.1182563305 -39.3100020885 0 -0 0
-5.8761923313 -39.3100020885 0 -0 0
-2.6341283321 -39.3100020885 0 -0 0
0.607935667 -39.3100020885 0 -0 0
3.8499996662 -39.3100020885 0 -0 0
7.0920636654 -39.3100020885 0 -0 0
10.3341276646 -39.3100020885 0 -0 0
13.5761916637 -39.3100020885 0 -0 0
16.8182556629 -39.3100020885 0 -0 0
20.0603196621 -39.3100020885 0 -0 0
23.3023836613 -39.3100020885 0 -0 0
26.5444476604 -39.3100020885 0 -0 0
29.7865116596 -39.3100020885 0 -0 0
33.0285756588 -39.3100020885 0 -0 0
36.270639658 -39.3100020885 0 -0 0
39.5127036572 -39.3100020885 0 -0 0
42.7547676563 -39.3100020885 0 -0 0
-35.0547683239 -42.5520660877 0 -0 0
-31.8127043247 -42.5520660877 0 -0 0
-28.5706403255 -42.5520660877 0 -0 0
-25.3285763264 -42.5520660877 0 -0 0
-22.0865123272 -42.5520660877 0 -0 0
-18.844448328 -42.5520660877 0 -0 0
-15.6023843288 -42.5520660877 0 -0 0
-12.3603203297 -42.5520660877 0 -0 0
-9.1182563305 -42.5520660877 0 -0 0
-5.8761923313 -42.5520660877 0 -0 0
-2.6341283321 -42.5520660877 0 -0 0
0.607935667 -42.5520660877 0 -0 0
3.8499996662 -42.5520660877 0 -0 0
7.0920636654 -42.5520660877 0 -0 0
10.3341276646 -42.5520660877 0 -0 0
13.5761916637 -42.5520660877 0 -0 0
16.8182556629 -42.5520660877 0 -0 0
20.0603196621 -42.5520660877 0 -0 0
23.3023836613 -42.5520660877 0 -0 0
26.5444476604 -42.5520660877 0 -0 0
29.7865116596 -42.5520660877 0 -0 0
33.0285756588 -42.5520660877 0 -0 0
36.270639658 -42.5520660877 0 -0 0
39.5127036572 -42.5520660877 0 -0 0
42.7547676563 -42.5520660877 0 -0 0
