TITLE = "B00080"
VARIABLES = "x", "y", "Vx", "Vy", "isValid"
ZONE T="Frame 0", I=25, J=25, F=POINT
-35.0547683239 35.2574698925 0 -0 0
-31.8127043247 35.2574698925 0 -0 0
-28.5706403255 35.2574698925 0 -0 0
-25.3285763264 35.2574698925 0 -0 0
-22.0865123272 35.2574698925 0 -0 0
-18.844448328 35.2574698925 0 -0 0
-15.6023843288 35.2574698925 0 -0 0
-12.3603203297 35.2574698925 0 -0 0
-9.1182563305 35.2574698925 0 -0 0
-5.8761923313 35.2574698925 0 -0 0
-2.6341283321 35.2574698925 0 -0 0
0.607935667 35.2574698925 0 -0 0
3.8499996662 35.2574698925 0 -0 0
7.0920636654 35.2574698925 0 -0 0
10.3341276646 35.2574698925 0 -0 0
13.5761916637 35.2574698925 0 -0 0
16.8182556629 35.2574698925 0 -0 0
20.0603196621 35.2574698925 0 -0 0
23.3023836613 35.2574698925 0 -0 0
26.5444476604 35.2574698925 0 -0 0
29.7865116596 35.2574698925 0 -0 0
33.0285756588 35.2574698925 0 -0 0
36.270639658 35.2574698925 0 -0 0
39.5127036572 35.2574698925 0 -0 0
42.7547676563 35.2574698925 0 -0 0
-35.0547683239 32.0154058933 0 -0 0
-31.8127043247 32.0154058933 0 -0 0
-28.5706403255 32.0154058933 0 -0 0
-25.3285763264 32.0154058933 0 -0 0
-22.0865123272 32.0154058933 0 -0 0
-18.844448328 32.0154058933 0 -0 0
-15.6023843288 32.0154058933 0 -0 0
-12.3603203297 32.0154058933 0 -0 0
-9.1182563305 32.0154058933 0 -0 0
-5.8761923313 32.0154058933 0 -0 0
-2.6341283321 32.0154058933 0 -0 0
0.607935667 32.0154058933 0 -0 0
3.8499996662 32.0154058933 0 -0 0
7.0920636654 32.0154058933 0 -0 0
10.3341276646 32.0154058933 0 -0 0
13.5761916637 32.0154058933 0 -0 0
16.8182556629 32.0154058933 0 -0 0
20.0603196621 32.0154058933 0 -0 0
23.3023836613 32.0154058933 0 -0 0
26.5444476604 32.0154058933 0 -0 0
29.7865116596 32.0154058933 0 -0 0
33.0285756588 32.0154058933 0 -0 0
36.270639658 32.0154058933 0 -0 0
39.5127036572 32.0154058933 0 -0 0
42.7547676563 32.0154058933 0 -0 0
-35.0547683239 28.7733418941 0 -0 0
-31.8127043247 28.7733418941 0 -0 0
-28.5706403255 28.7733418941 0 -0 0
-25.3285763264 28.7733418941 0 -0 0
-22.0865123272 28.7733418941 0 -0 0
-18.844448328 28.7733418941 0 -0 0
-15.6023843288 28.7733418941 0 -0 0
-12.3603203297 28.7733418941 0 -0 0
-9.1182563305 28.7733418941 0 -0 0
-5.8761923313 28.7733418941 0 -0 0
-2.6341283321 28.7733418941 0 -0 0
0.607935667 28.7733418941 0 -0 0
3.8499996662 28.7733418941 0 -0 0
7.0920636654 28.7733418941 0 -0 0
10.3341276646 28.7733418941 0 -0 0
13.5761916637 28.7733418941 0 -0 0
16.8182556629 28.7733418941 0 -0 0
20.0603196621 28.7733418941 0 -0 0
23.3023836613 28.7733418941 0 -0 0
26.5444476604 28.7733418941 0 -0 0
29.7865116596 28.7733418941 0 -0 0
33.0285756588 28.7733418941 0 -0 0
36.270639658 28.7733418941 0 -0 0
39.5127036572 28.7733418941 0 -0 0
42.7547676563 28.7733418941 0 -0 0
-35.0547683239 25.531277895 0 -0 0
-31.8127043247 25.531277895 0 -0 0
-28.5706403255 25.531277895 0 -0 0
-25.3285763264 25.531277895 0 -0 0
-22.0865123272 25.531277895 0 -0 0
-18.844448328 25.531277895 0 -0 0
-15.6023843288 25.531277895 0 -0 0
-12.3603203297 25.531277895 0 -0 0
-9.1182563305 25.531277895 -0.9395391571 -0.6019595699 1
-5.8761923313 25.531277895 -0.8513113209 0.6393286228 1
-2.6341283321 25.531277895 -0.0765501605 1.6986720492 1
0.607935667 25.531277895 1.1015758764 1.7395205538 1
3.8499996662 25.531277895 1.6943636569 1.646568402 1
7.0920636654 25.531277895 1.9844269446 2.2879468248 1
10.3341276646 25.531277895 2.3449086984 3.5667554936 1
13.5761916637 25.531277895 3.2813158243 4.4211647264 1
16.8182556629 25.531277895 0 -0 0
20.0603196621 25.531277895 0 -0 0
23.3023836613 25.531277895 0 -0 0
26.5444476604 25.531277895 0 -0 0
29.7865116596 25.531277895 0 -0 0
33.0285756588 25.531277895 0 -0 0
36.270639658 25.531277895 0 -0 0
39.5127036572 25.531277895 0 -0 0
42.7547676563 25.531277895 0 -0 0
-35.0547683239 22.2892138958 0 -0 0
-31.8127043247 22.2892138958 0 -0 0
-28.5706403255 22.2892138958 0 -0 0
-25.3285763264 22.2892138958 0 -0 0
-22.0865123272 22.2892138958 0 -0 0
-18.844448328 22.2892138958 0 -0 0
-15.6023843288 22.2892138958 2.5631875401 -0.7391371692 1
-12.3603203297 22.2892138958 0.0932344664 -0.9546185301 1
-9.1182563305 22.2892138958 -1.2154244404 -0.2848382788 1
-5.8761923313 22.2892138958 -1.0079913852 0.4947834432 1
-2.6341283321 22.2892138958 0.756881924 0.7695392794 1
0.607935667 22.2892138958 2.5242759853 0.607868701 1
3.8499996662 22.2892138958 3.3259000906 0.9402922727 1
7.0920636654 22.2892138958 3.1998223232 2.3222607282 1
10.3341276646 22.2892138958 2.8040520014 3.9861330514 1
13.5761916637 22.2892138958 2.9719147426 4.7787881583 1
16.8182556629 22.2892138958 3.4600378639 3.7184677271 1
20.0603196621 22.2892138958 4.0224462553 1.3688427144 1
23.3023836613 22.2892138958 0 -0 0
26.5444476604 22.2892138958 0 -0 0
29.7865116596 22.2892138958 0 -0 0
33.0285756588 22.2892138958 0 -0 0
36.270639658 22.2892138958 0 -0 0
39.5127036572 22.2892138958 0 -0 0
42.7547676563 22.2892138958 0 -0 0
-35.0547683239 19.0471498966 0 -0 0
-31.8127043247 19.0471498966 0 -0 0
-28.5706403255 19.0471498966 0 -0 0
-25.3285763264 19.0471498966 0 -0 0
-22.0865123272 19.0471498966 0 -0 0
-18.844448328 19.0471498966 6.4963055362 4.4278439573 1
-15.6023843288 19.0471498966 4.2555010195 0.6726062655 1
-12.3603203297 19.0471498966 1.0800964922 -0.9314589967 1
-9.1182563305 19.0471498966 -0.8575996895 -0.9994329507 1
-5.8761923313 19.0471498966 -0.6920814426 -0.6569650563 1
-2.6341283321 19.0471498966 1.5291265923 -0.8484228804 1
0.607935667 19.0471498966 3.7667924351 -0.8054436555 1
3.8499996662 19.0471498966 4.2914446479 0.4692733389 1
7.0920636654 19.0471498966 3.6957759754 2.8412209053 1
10.3341276646 19.0471498966 2.8308610169 5.0803466315 1
13.5761916637 19.0471498966 2.5957304101 5.1784042992 1
16.8182556629 19.0471498966 2.4969236275 2.7077356259 1
20.0603196621 19.0471498966 3.004185262 -0.5839914922 1
23.3023836613 19.0471498966 4.61861313 -2.8297767477 1
26.5444476604 19.0471498966 0 -0 0
29.7865116596 19.0471498966 0 -0 0
33.0285756588 19.0471498966 0 -0 0
36.270639658 19.0471498966 0 -0 0
39.5127036572 19.0471498966 0 -0 0
42.7547676563 19.0471498966 0 -0 0
-35.0547683239 15.8050858974 0 -0 0
-31.8127043247 15.8050858974 0 -0 0
-28.5706403255 15.8050858974 0 -0 0
-25.3285763264 15.8050858974 0 -0 0
-22.0865123272 15.8050858974 9.1337354709 13.5870985528 1
-18.844448328 15.8050858974 8.056596941 9.2759616324 1
-15.6023843288 15.8050858974 5.9308671696 2.9408480608 1
-12.3603203297 15.8050858974 2.7288850644 -1.1504258858 1
-9.1182563305 15.8050858974 0.6683556194 -1.7555913492 1
-5.8761923313 15.8050858974 0.4012263531 -0.788683152 1
-2.6341283321 15.8050858974 2.0885216152 -0.71048239 1
0.607935667 15.8050858974 3.9126044448 -0.388367188 1
3.8499996662 15.8050858974 3.9798632522 1.6168412803 1
7.0920636654 15.8050858974 3.0756491979 4.4909263204 1
10.3341276646 15.8050858974 2.7365093697 6.539797079 1
13.5761916637 15.8050858974 3.3330500471 4.8269486106 1
16.8182556629 15.8050858974 2.9560196767 1.0060675698 1
20.0603196621 15.8050858974 2.5085783887 -2.2562836592 1
23.3023836613 15.8050858974 3.3448698189 -3.438564443 1
26.5444476604 15.8050858974 4.7579171092 -3.4244662265 1
29.7865116596 15.8050858974 0 -0 0
33.0285756588 15.8050858974 0 -0 0
36.270639658 15.8050858974 0 -0 0
39.5127036572 15.8050858974 0 -0 0
42.7547676563 15.8050858974 0 -0 0
-35.0547683239 12.5630218983 0 -0 0
-31.8127043247 12.5630218983 0 -0 0
-28.5706403255 12.5630218983 0 -0 0
-25.3285763264 12.5630218983 0 -0 0
-22.0865123272 12.5630218983 11.1067496598 14.5552799585 1
-18.844448328 12.5630218983 9.576346764 11.7795001774 1
-15.6023843288 12.5630218983 6.9760301761 4.7885535254 1
-12.3603203297 12.5630218983 4.4940009829 -1.2156235703 1
-9.1182563305 12.5630218983 3.1700609312 -2.0988987143 1
-5.8761923313 12.5630218983 2.573499118 -0.1404934275 1
-2.6341283321 12.5630218983 3.1137888412 1.0795511118 1
0.607935667 12.5630218983 3.8646716558 1.5609235177 1
3.8499996662 12.5630218983 3.2111891839 2.7447544653 1
7.0920636654 12.5630218983 2.1720708798 4.4900159691 1
10.3341276646 12.5630218983 2.8100853811 5.5602337155 1
13.5761916637 12.5630218983 4.2677145221 3.0212129075 1
16.8182556629 12.5630218983 3.9049713831 -0.8960205151 1
20.0603196621 12.5630218983 2.1639074593 -3.7275857333 1
23.3023836613 12.5630218983 1.6597905375 -4.1572467884 1
26.5444476604 12.5630218983 2.6110225003 -3.7472438864 1
29.7865116596 12.5630218983 2.9825282612 -4.0165617324 1
33.0285756588 12.5630218983 0 -0 0
36.270639658 12.5630218983 0 -0 0
39.5127036572 12.5630218983 0 -0 0
42.7547676563 12.5630218983 0 -0 0
-35.0547683239 9.3209578991 0 -0 0
-31.8127043247 9.3209578991 0 -0 0
-28.5706403255 9.3209578991 0 -0 0
-25.3285763264 9.3209578991 12.8204239361 9.7984187361 1
-22.0865123272 9.3209578991 13.3153663888 11.4140721815 1
-18.844448328 9.3209578991 11.1879596386 9.7181695327 1
-15.6023843288 9.3209578991 7.5870187174 4.1866709126 1
-12.3603203297 9.3209578991 5.4775816678 -0.8652477727 1
-9.1182563305 9.3209578991 5.4676725769 -1.1588490509 1
-5.8761923313 9.3209578991 4.7177647289 1.3868103015 1
-2.6341283321 9.3209578991 3.932460973 3.4672886686 1
0.607935667 9.3209578991 3.3287920789 3.9406610794 1
3.8499996662 9.3209578991 2.4946370303 3.6308336573 1
7.0920636654 9.3209578991 1.9166392881 3.4096188949 1
10.3341276646 9.3209578991 2.8874851698 2.8017910692 1
13.5761916637 9.3209578991 4.5662629482 0.4472566135 1
16.8182556629 9.3209578991 4.2895789562 -2.1648757832 1
20.0603196621 9.3209578991 1.9703862478 -3.7626935897 1
23.3023836613 9.3209578991 0.5627445269 -4.213546657 1
26.5444476604 9.3209578991 0.9333334447 -4.8234787077 1
29.7865116596 9.3209578991 1.5157972678 -5.8297834519 1
33.0285756588 9.3209578991 0 -0 0
36.270639658 9.3209578991 0 -0 0
39.5127036572 9.3209578991 0 -0 0
42.7547676563 9.3209578991 0 -0 0
-35.0547683239 6.0788938999 0 -0 0
-31.8127043247 6.0788938999 0 -0 0
-28.5706403255 6.0788938999 0 -0 0
-25.3285763264 6.0788938999 11.9306275517 7.9054894948 1
-22.0865123272 6.0788938999 12.5399004658 7.2424161776 1
-18.844448328 6.0788938999 10.2066148248 5.4107048155 1
-15.6023843288 6.0788938999 6.9444115467 2.2257707368 1
-12.3603203297 6.0788938999 5.790225593 -0.3230556342 1
-9.1182563305 6.0788938999 6.8766904681 -0.7260834411 1
-5.8761923313 6.0788938999 6.1316565474 0.8915029534 1
-2.6341283321 6.0788938999 4.2187385279 3.1766954749 1
0.607935667 6.0788938999 2.3938869572 4.6227581724 1
3.8499996662 6.0788938999 1.716513425 4.2389021298 1
7.0920636654 6.0788938999 2.2007759322 2.2123038783 1
10.3341276646 6.0788938999 3.4074180489 -0.1681850063 1
13.5761916637 6.0788938999 4.5062310922 -2.0548395229 1
16.8182556629 6.0788938999 4.0590903862 -2.9326458409 1
20.0603196621 6.0788938999 1.8866223033 -3.4324558801 1
23.3023836613 6.0788938999 0.4748408618 -4.4993474474 1
26.5444476604 6.0788938999 0.2965235172 -6.2029803828 1
29.7865116596 6.0788938999 0.4228780699 -7.3552828303 1
33.0285756588 6.0788938999 0.0019238322 -7.9151461633 1
36.270639658 6.0788938999 0 -0 0
39.5127036572 6.0788938999 0 -0 0
42.7547676563 6.0788938999 0 -0 0
-35.0547683239 2.8368299007 0 -0 0
-31.8127043247 2.8368299007 0 -0 0
-28.5706403255 2.8368299007 5.5038336026 7.7810681743 1
-25.3285763264 2.8368299007 8.2699331639 7.3696636634 1
-22.0865123272 2.8368299007 8.8788479763 5.5398635861 1
-18.844448328 2.8368299007 7.2394166984 3.0965688594 1
-15.6023843288 2.8368299007 5.422368182 0.9412821099 1
-12.3603203297 2.8368299007 5.7119196801 -0.257761291 1
-9.1182563305 2.8368299007 6.9675039738 -0.9487949237 1
-5.8761923313 2.8368299007 5.5913541427 -0.7608648996 1
-2.6341283321 2.8368299007 2.5838094881 1.0611608832 1
0.607935667 2.8368299007 0.4980728232 3.4460513654 1
3.8499996662 2.8368299007 0.6889788506 4.4106964413 1
7.0920636654 2.8368299007 2.5067489298 2.6215261125 1
10.3341276646 2.8368299007 4.1409133046 -0.5678933335 1
13.5761916637 2.8368299007 4.9605881816 -2.6452435569 1
16.8182556629 2.8368299007 4.0233255067 -2.9370753114 1
20.0603196621 2.8368299007 1.8716868051 -2.4821149444 1
23.3023836613 2.8368299007 0.1953870543 -3.4241612663 1
26.5444476604 2.8368299007 -0.426770803 -5.4763642428 1
29.7865116596 2.8368299007 -0.6371147933 -7.0963680503 1
33.0285756588 2.8368299007 -1.1314286809 -7.775063177 1
36.270639658 2.8368299007 0 -0 0
39.5127036572 2.8368299007 0 -0 0
42.7547676563 2.8368299007 0 -0 0
-35.0547683239 -0.4052340984 0 -0 0
-31.8127043247 -0.4052340984 0 -0 0
-28.5706403255 -0.4052340984 1.1449122971 5.3462386579 1
-25.3285763264 -0.4052340984 2.5893214162 5.7237720616 1
-22.0865123272 -0.4052340984 3.2685606401 4.9658615765 1
-18.844448328 -0.4052340984 2.8322158249 3.0633505481 1
-15.6023843288 -0.4052340984 3.3779788278 1.4129452343 1
-12.3603203297 -0.4052340984 5.0688553712 0.8210769388 1
-9.1182563305 -0.4052340984 5.5217501617 -0.1712661416 1
-5.8761923313 -0.4052340984 2.3855153485 -1.2207380688 1
-2.6341283321 -0.4052340984 -1.6488421666 -0.4262468981 1
0.607935667 -0.4052340984 -2.6439615165 2.0986388943 1
3.8499996662 -0.4052340984 -0.4498288843 4.2140747513 1
7.0920636654 -0.4052340984 2.6207253657 3.1781964223 1
10.3341276646 -0.4052340984 4.3525758701 -0.0358184905 1
13.5761916637 -0.4052340984 4.4248073393 -2.6228102664 1
16.8182556629 -0.4052340984 3.133688547 -3.1803241986 1
20.0603196621 -0.4052340984 1.1983885669 -2.2497928393 1
23.3023836613 -0.4052340984 -0.3079892069 -2.3426670905 1
26.5444476604 -0.4052340984 -1.1467693081 -3.8651719716 1
29.7865116596 -0.4052340984 -1.5179809032 -5.1490290894 1
33.0285756588 -0.4052340984 -1.9351038696 -6.0365434058 1
36.270639658 -0.4052340984 0 -0 0
39.5127036572 -0.4052340984 0 -0 0
42.7547676563 -0.4052340984 0 -0 0
-35.0547683239 -3.6472980976 0 -0 0
-31.8127043247 -3.6472980976 0 -0 0
-28.5706403255 -3.6472980976 -2.7240126468 1.5329893201 1
-25.3285763264 -3.6472980976 -2.3452437017 1.9796425428 1
-22.0865123272 -3.6472980976 -1.0434405856 3.0321440678 1
-18.844448328 -3.6472980976 0.425553378 3.8803671389 1
-15.6023843288 -3.6472980976 2.7494330369 4.8694597518 1
-12.3603203297 -3.6472980976 4.1764891692 4.9107039497 1
-9.1182563305 -3.6472980976 2.6459540234 3.0416558047 1
-5.8761923313 -3.6472980976 -1.7395801871 0.8316709067 1
-2.6341283321 -3.6472980976 -5.211992186 0.6353391554 1
0.607935667 -3.6472980976 -4.2853638636 2.2854546061 1
3.8499996662 -3.6472980976 -0.6364599594 3.6894225385 1
7.0920636654 -3.6472980976 2.0466502864 2.9643719612 1
10.3341276646 -3.6472980976 2.6505703952 0.3887815639 1
13.5761916637 -3.6472980976 1.8528114332 -1.8876851347 1
16.8182556629 -3.6472980976 0.907404662 -2.7855049901 1
20.0603196621 -3.6472980976 0.1943521335 -2.1377103267 1
23.3023836613 -3.6472980976 -0.5796338836 -2.1657089887 1
26.5444476604 -3.6472980976 -1.3381691595 -3.6246414568 1
29.7865116596 -3.6472980976 -1.771664711 -4.5212438872 1
33.0285756588 -3.6472980976 -1.9738861937 -4.96950117 1
36.270639658 -3.6472980976 0 -0 0
39.5127036572 -3.6472980976 0 -0 0
42.7547676563 -3.6472980976 0 -0 0
-35.0547683239 -6.8893620968 0 -0 0
-31.8127043247 -6.8893620968 0 -0 0
-28.5706403255 -6.8893620968 -5.1569103463 -1.2325573877 1
-25.3285763264 -6.8893620968 -5.2071949517 -0.2135711328 1
-22.0865123272 -6.8893620968 -3.0434209502 1.7254090518 1
-18.844448328 -6.8893620968 -0.1476111707 4.2553277055 1
-15.6023843288 -6.8893620968 2.6896892324 6.4692721788 1
-12.3603203297 -6.8893620968 2.9570030977 6.6460325094 1
-9.1182563305 -6.8893620968 0.1792191283 3.8733053491 1
-5.8761923313 -6.8893620968 -3.4977952502 1.4478661894 1
-2.6341283321 -6.8893620968 -4.9551130904 1.8362913501 1
0.607935667 -6.8893620968 -2.9113140303 3.1645964079 1
3.8499996662 -6.8893620968 0.3508481461 3.2888169379 1
7.0920636654 -6.8893620968 1.2302519948 2.2076574633 1
10.3341276646 -6.8893620968 0.7192792068 0.7228606012 1
13.5761916637 -6.8893620968 -0.2224989163 -0.7659664902 1
16.8182556629 -6.8893620968 -0.2046819977 -1.9324486028 1
20.0603196621 -6.8893620968 0.2315383424 -2.3324059367 1
23.3023836613 -6.8893620968 -0.1273486737 -3.4143276606 1
26.5444476604 -6.8893620968 -1.0346996279 -5.3581840371 1
29.7865116596 -6.8893620968 -1.5333049991 -5.7427979509 1
33.0285756588 -6.8893620968 -1.5746888446 -5.2797525169 1
36.270639658 -6.8893620968 0 -0 0
39.5127036572 -6.8893620968 0 -0 0
42.7547676563 -6.8893620968 0 -0 0
-35.0547683239 -10.131426096 0 -0 0
-31.8127043247 -10.131426096 0 -0 0
-28.5706403255 -10.131426096 -5.4048767555 -1.7651618135 1
-25.3285763264 -10.131426096 -4.6597413827 -1.08286627 1
-22.0865123272 -10.131426096 -2.4176943799 -0.147471608 1
-18.844448328 -10.131426096 0.1407124289 2.2080525528 1
-15.6023843288 -10.131426096 1.3308430206 4.9809860896 1
-12.3603203297 -10.131426096 0.3660884912 5.5617705938 1
-9.1182563305 -10.131426096 -1.5656365106 3.0621868685 1
-5.8761923313 -10.131426096 -2.406950121 1.2688875003 1
-2.6341283321 -10.131426096 -1.1438577691 2.6930344337 1
0.607935667 -10.131426096 0.6534330291 4.1704772274 1
3.8499996662 -10.131426096 1.7660134374 3.4351567399 1
7.0920636654 -10.131426096 0.7411326955 1.8461681333 1
10.3341276646 -10.131426096 0.0381481307 0.8259895899 1
13.5761916637 -10.131426096 0.0138511618 -0.2591891498 1
16.8182556629 -10.131426096 0.570319616 -1.7277730968 1
20.0603196621 -10.131426096 0.7188733984 -3.1081440593 1
23.3023836613 -10.131426096 -0.2493359368 -5.0173285817 1
26.5444476604 -10.131426096 -1.3643040924 -7.0341102872 1
29.7865116596 -10.131426096 -1.6605698465 -7.4111466964 1
33.0285756588 -10.131426096 -1.4436590983 -6.3409177782 1
36.270639658 -10.131426096 0 -0 0
39.5127036572 -10.131426096 0 -0 0
42.7547676563 -10.131426096 0 -0 0
-35.0547683239 -13.3734900951 0 -0 0
-31.8127043247 -13.3734900951 0 -0 0
-28.5706403255 -13.3734900951 0 -0 0
-25.3285763264 -13.3734900951 -2.3365274277 -1.5359617756 1
-22.0865123272 -13.3734900951 -0.2608402938 -1.6684198526 1
-18.844448328 -13.3734900951 0.2870653937 -0.5197996856 1
-15.6023843288 -13.3734900951 -1.6402708241 1.4559372161 1
-12.3603203297 -13.3734900951 -3.4617341669 3.1603151903 1
-9.1182563305 -13.3734900951 -3.1706687379 2.835129553 1
-5.8761923313 -13.3734900951 -1.0965241815 2.3586868578 1
-2.6341283321 -13.3734900951 1.4645150503 4.0744531305 1
0.607935667 -13.3734900951 2.550762981 5.3156810483 1
3.8499996662 -13.3734900951 1.9352398939 4.370686879 1
7.0920636654 -13.3734900951 0.2297004103 2.3367217265 1
10.3341276646 -13.3734900951 -0.0833882453 0.5285578539 1
13.5761916637 -13.3734900951 1.0578113792 -1.5210490739 1
16.8182556629 -13.3734900951 1.8038331745 -3.9312930663 1
20.0603196621 -13.3734900951 0.7498114534 -5.4756450199 1
23.3023836613 -13.3734900951 -1.2030885763 -6.310974316 1
26.5444476604 -13.3734900951 -2.5213430841 -7.1030868354 1
29.7865116596 -13.3734900951 -2.2828479517 -7.4913161875 1
33.0285756588 -13.3734900951 -1.8105774736 -6.9125797472 1
36.270639658 -13.3734900951 0 -0 0
39.5127036572 -13.3734900951 0 -0 0
42.7547676563 -13.3734900951 0 -0 0
-35.0547683239 -16.6155540943 0 -0 0
-31.8127043247 -16.6155540943 0 -0 0
-28.5706403255 -16.6155540943 0 -0 0
-25.3285763264 -16.6155540943 -1.4022213563 -2.9037537363 1
-22.0865123272 -16.6155540943 -0.1646830411 -3.2948696418 1
-18.844448328 -16.6155540943 -1.5637427383 -2.4989677662 1
-15.6023843288 -16.6155540943 -4.8534463252 -0.193119687 1
-12.3603203297 -16.6155540943 -6.8032717679 3.0414969838 1
-9.1182563305 -16.6155540943 -4.9806445946 5.1218381189 1
-5.8761923313 -16.6155540943 -2.0867202368 6.0726126415 1
-2.6341283321 -16.6155540943 -0.1637404388 7.1839242193 1
0.607935667 -16.6155540943 0.5397079212 7.2114823498 1
3.8499996662 -16.6155540943 -0.1444720628 5.6730955372 1
7.0920636654 -16.6155540943 -0.9092962451 2.9605071198 1
10.3341276646 -16.6155540943 -0.8347305476 0.0040430536 1
13.5761916637 -16.6155540943 0.8677814328 -3.3719324646 1
16.8182556629 -16.6155540943 1.9945845327 -6.803969251 1
20.0603196621 -16.6155540943 0.8252037137 -8.0570130153 1
23.3023836613 -16.6155540943 -1.3070958351 -7.2100674555 1
26.5444476604 -16.6155540943 -2.8046939274 -6.340302423 1
29.7865116596 -16.6155540943 -2.6893827625 -6.5433853426 1
33.0285756588 -16.6155540943 0 -0 0
36.270639658 -16.6155540943 0 -0 0
39.5127036572 -16.6155540943 0 -0 0
42.7547676563 -16.6155540943 0 -0 0
-35.0547683239 -19.8576180935 0 -0 0
-31.8127043247 -19.8576180935 0 -0 0
-28.5706403255 -19.8576180935 0 -0 0
-25.3285763264 -19.8576180935 0 -0 0
-22.0865123272 -19.8576180935 -1.5767135082 -3.2744016835 1
-18.844448328 -19.8576180935 -3.1970891557 -2.4915430437 1
-15.6023843288 -19.8576180935 -5.7535337555 -0.0937331404 1
-12.3603203297 -19.8576180935 -7.2448618975 3.687891699 1
-9.1182563305 -19.8576180935 -5.7424223366 6.8091312297 1
-5.8761923313 -19.8576180935 -3.6275228772 8.3145298098 1
-2.6341283321 -19.8576180935 -2.801868366 8.8940047971 1
0.607935667 -19.8576180935 -2.4571094209 8.3140660288 1
3.8499996662 -19.8576180935 -2.6955743591 6.5849619773 1
7.0920636654 -19.8576180935 -2.6310466057 3.6255992128 1
10.3341276646 -19.8576180935 -2.2710645638 0.0824456524 1
13.5761916637 -19.8576180935 -0.5600026409 -3.9871765586 1
16.8182556629 -19.8576180935 0.9895217462 -7.9911458528 1
20.0603196621 -19.8576180935 0.7891383277 -9.2771802652 1
23.3023836613 -19.8576180935 -0.5027127842 -7.7572045906 1
26.5444476604 -19.8576180935 -1.7474928459 -5.9163226846 1
29.7865116596 -19.8576180935 -2.1372799102 -5.4893591679 1
33.0285756588 -19.8576180935 0 -0 0
36.270639658 -19.8576180935 0 -0 0
39.5127036572 -19.8576180935 0 -0 0
42.7547676563 -19.8576180935 0 -0 0
-35.0547683239 -23.0996820927 0 -0 0
-31.8127043247 -23.0996820927 0 -0 0
-28.5706403255 -23.0996820927 0 -0 0
-25.3285763264 -23.0996820927 0 -0 0
-22.0865123272 -23.0996820927 -2.7877106671 -2.009152871 1
-18.844448328 -23.0996820927 -3.0192382152 -1.7093089682 1
-15.6023843288 -23.0996820927 -3.7537099472 -0.1282547601 1
-12.3603203297 -23.0996820927 -4.6232089699 2.8831716445 1
-9.1182563305 -23.0996820927 -4.6357141471 5.2794699004 1
-5.8761923313 -23.0996820927 -3.91433064 6.3518087804 1
-2.6341283321 -23.0996820927 -3.5780701186 7.1609906131 1
0.607935667 -23.0996820927 -3.760144908 7.4114281052 1
3.8499996662 -23.0996820927 -4.2020852888 6.5482393418 1
7.0920636654 -23.0996820927 -3.9409358455 3.9476926751 1
10.3341276646 -23.0996820927 -3.2896907544 0.8551627258 1
13.5761916637 -23.0996820927 -1.7689658138 -2.809331737 1
16.8182556629 -23.0996820927 -0.1570456768 -6.5050304156 1
20.0603196621 -23.0996820927 0.6821788434 -7.8135841715 1
23.3023836613 -23.0996820927 0.356909493 -6.7194518135 1
26.5444476604 -23.0996820927 -0.3784479444 -5.1510001585 1
29.7865116596 -23.0996820927 0 -0 0
33.0285756588 -23.0996820927 0 -0 0
36.270639658 -23.0996820927 0 -0 0
39.5127036572 -23.0996820927 0 -0 0
42.7547676563 -23.0996820927 0 -0 0
-35.0547683239 -26.3417460918 0 -0 0
-31.8127043247 -26.3417460918 0 -0 0
-28.5706403255 -26.3417460918 0 -0 0
-25.3285763264 -26.3417460918 0 -0 0
-22.0865123272 -26.3417460918 0 -0 0
-18.844448328 -26.3417460918 -0.3408051823 -1.6927974904 1
-15.6023843288 -26.3417460918 -0.0126344079 -0.1434500311 1
-12.3603203297 -26.3417460918 -1.4744541843 2.373704031 1
-9.1182563305 -26.3417460918 -3.5263455579 3.5289350016 1
-5.8761923313 -26.3417460918 -3.991779947 3.116627386 1
-2.6341283321 -26.3417460918 -3.4454052122 3.315149189 1
0.607935667 -26.3417460918 -3.8770004997 4.6128083195 1
3.8499996662 -26.3417460918 -4.5195261464 4.9688504878 1
7.0920636654 -26.3417460918 -4.4092127045 3.439726009 1
10.3341276646 -26.3417460918 -3.5154660295 1.2349541932 1
13.5761916637 -26.3417460918 -2.2660186813 -1.314941463 1
16.8182556629 -26.3417460918 -1.1664220263 -4.1373706341 1
20.0603196621 -26.3417460918 -0.1785374217 -5.5802584247 1
23.3023836613 -26.3417460918 0.2240663284 -5.3354599777 1
26.5444476604 -26.3417460918 0 -0 0
29.7865116596 -26.3417460918 0 -0 0
33.0285756588 -26.3417460918 0 -0 0
36.270639658 -26.3417460918 0 -0 0
39.5127036572 -26.3417460918 0 -0 0
42.7547676563 -26.3417460918 0 -0 0
-35.0547683239 -29.583810091 0 -0 0
-31.8127043247 -29.583810091 0 -0 0
-28.5706403255 -29.583810091 0 -0 0
-25.3285763264 -29.583810091 0 -0 0
-22.0865123272 -29.583810091 0 -0 0
-18.844448328 -29.583810091 0 -0 0
-15.6023843288 -29.583810091 1.9534561291 1.0543272096 1
-12.3603203297 -29.583810091 -0.5766594277 3.0547775449 1
-9.1182563305 -29.583810091 -3.6570158439 3.0039415958 1
-5.8761923313 -29.583810091 -5.0986895309 1.3882445199 1
-2.6341283321 -29.583810091 -4.5508485719 0.701582536 1
0.607935667 -29.583810091 -4.5129731267 1.6361118925 1
3.8499996662 -29.583810091 -4.558041404 2.3427315548 1
7.0920636654 -29.583810091 -4.4572979736 1.7241486003 1
10.3341276646 -29.583810091 -3.5435247777 0.6215996066 1
13.5761916637 -29.583810091 -2.3943250732 -0.862261126 1
16.8182556629 -29.583810091 -1.5053185658 -2.6020560684 1
20.0603196621 -29.583810091 -0.6689850148 -3.773477101 1
23.3023836613 -29.583810091 0 -0 0
26.5444476604 -29.583810091 0 -0 0
29.7865116596 -29.583810091 0 -0 0
33.0285756588 -29.583810091 0 -0 0
36.270639658 -29.583810091 0 -0 0
39.5127036572 -29.583810091 0 -0 0
42.7547676563 -29.583810091 0 -0 0
-35.0547683239 -32.8258740902 0 -0 0
-31.8127043247 -32.8258740902 0 -0 0
-28.5706403255 -32.8258740902 0 -0 0
-25.3285763264 -32.8258740902 0 -0 0
-22.0865123272 -32.8258740902 0 -0 0
-18.844448328 -32.8258740902 0 -0 0
-15.6023843288 -32.8258740902 0 -0 0
-12.3603203297 -32.8258740902 0 -0 0
-9.1182563305 -32.8258740902 -4.6171701553 3.1398888999 1
-5.8761923313 -32.8258740902 -6.6632304495 1.3263078709 1
-2.6341283321 -32.8258740902 -6.3899269859 0.003471379 1
0.607935667 -32.8258740902 -5.2372271845 -0.0460796466 1
3.8499996662 -32.8258740902 -4.8942116451 -0.2901980476 1
7.0920636654 -32.8258740902 -4.8184827964 -0.513868777 1
10.3341276646 -32.8258740902 -4.4158795558 -0.7788250891 1
13.5761916637 -32.8258740902 -2.5893920703 -0.9058141137 1
16.8182556629 -32.8258740902 -1.5403655812 -1.7827836784 1
20.0603196621 -32.8258740902 0 -0 0
23.3023836613 -32.8258740902 0 -0 0
26.5444476604 -32.8258740902 0 -0 0
29.7865116596 -32.8258740902 0 -0 0
33.0285756588 -32.8258740902 0 -0 0
36.270639658 -32.8258740902 0 -0 0
39.5127036572 -32.8258740902 0 -0 0
42.7547676563 -32.8258740902 0 -0 0
-35.0547683239 -36.0679380894 0 -0 0
-31.8127043247 -36.0679380894 0 -0 0
-28.5706403255 -36.0679380894 0 -0 0
-25.3285763264 -36.0679380894 0 -0 0
-22.0865123272 -36.0679380894 0 -0 0
-18.844448328 -36.0679380894 0 -0 0
-15.6023843288 -36.0679380894 0 -0 0
-12.3603203297 -36.0679380894 0 -0 0
-9.1182563305 -36.0679380894 0 -0 0
-5.8761923313 -36.0679380894 0 -0 0
-2.6341283321 -36.0679380894 0 -0 0
0.607935667 -36.0679380894 0 -0 0
3.8499996662 -36.0679380894 0 -0 0
7.0920636654 -36.0679380894 0 -0 0
10.3341276646 -36.0679380894 0 -0 0
13.5761916637 -36.0679380894 0 -0 0
16.8182556629 -36.0679380894 0 -0 0
20.0603196621 -36.0679380894 0 -0 0
23.3023836613 -36.0679380894 0 -0 0
26.5444476604 -36.0679380894 0 -0 0
29.7865116596 -36.0679380894 0 -0 0
33.0285756588 -36.0679380894 0 -0 0
36.270639658 -36.0679380894 0 -0 0
39.5127036572 -36.0679380894 0 -0 0
42.7547676563 -36.0679380894 0 -0 0
-35.0547683239 -39.3100020885 0 -0 0
-31.8127043247 -39.3100020885 0 -0 0
-28.5706403255 -39.3100020885 0 -0 0
-25.3285763264 -39.3100020885 0 -0 0
-22.0865123272 -39.3100020885 0 -0 0
-18.844448328 -39.3100020885 0 -0 0
-15.6023843288 -39.3100020885 0 -0 0
-12.3603203297 -39.3100020885 0 -0 0
-9.1182563305 -39.3100020885 0 -0 0
-5.8761923313 -39.3100020885 0 -0 0
-2.6341283321 -39.3100020885 0 -0 0
0.607935667 -39.3100020885 0 -0 0
3.8499996662 -39.3100020885 0 -0 0
7.0920636654 -39.3100020885 0 -0 0
10.3341276646 -39.3100020885 0 -0 0
13.5761916637 -39.3100020885 0 -0 0
16.8182556629 -39.3100020885 0 -0 0
20.0603196621 -39.3100020885 0 -0 0
23.3023836613 -39.3100020885 0 -0 0
26.5444476604 -39.3100020885 0 -0 0
29.7865116596 -39.3100020885 0 -0 0
33.0285756588 -39.3100020885 0 -0 0
36.270639658 -39.3100020885 0 -0 0
39.5127036572 -39.3100020885 0 -0 0
42.7547676563 -39.3100020885 0 -0 0
-35.0547683239 -42.5520660877 0 -0 0
-31.8127043247 -42.5520660877 0 -0 0
-28.5706403255 -42.5520660877 0 -0 0
-25.3285763264 -42.5520660877 0 -0 0
-22.0865123272 -42.5520660877 0 -0 0
-18.844448328 -42.5520660877 0 -0 0
-15.6023843288 -42.5520660877 0 -0 0
-12.3603203297 -42.5520660877 0 -0 0
-9.1182563305 -42.5520660877 0 -0 0
-5.8761923313 -42.5520660877 0 -0 0
-2.6341283321 -42.5520660877 0 -0 0
0.607935667 -42.5520660877 0 -0 0
3.8499996662 -42.5520660877 0 -0 0
7.0920636654 -42.5520660877 0 -0 0
10.3341276646 -42.5520660877 0 -0 0
13.5761916637 -42.5520660877 0 -0 0
16.8182556629 -42.5520660877 0 -0 0
20.0603196621 -42.5520660877 0 -0 0
23.3023836613 -42.5520660877 0 -0 0
26.5444476604 -42.5520660877 0 -0 0
29.7865116596 -42.5520660877 0 -0 0
33.0285756588 -42.5520660877 0 -0 0
36.270639658 -42.5520660877 0 -0 0
39.5127036572 -42.5520660877 0 -0 0
42.7547676563 -42.5520660877 0 -0 0
