TITLE = "B00080"
VARIABLES = "x", "y", "Vx", "Vy", "isValid"
ZONE T="Frame 0", I=25, J=25, F=POINT
-35.0547683239 35.2574698925 0 -0 0
-31.8127043247 35.2574698925 0 -0 0
-28.5706403255 35.2574698925 0 -0 0
-25.3285763264 35.2574698925 0 -0 0
-22.0865123272 35.2574698925 0 -0 0
-18.844448328 35.2574698925 0 -0 0
-15.6023843288 35.2574698925 0 -0 0
-12.3603203297 35.2574698925 0 -0 0
-9.1182563305 35.2574698925 0 -0 0
-5.8761923313 35.2574698925 0 -0 0
-2.6341283321 35.2574698925 0 -0 0
0.607935667 35.2574698925 0 -0 0
3.8499996662 35.2574698925 0 -0 0
7.0920636654 35.2574698925 0 -0 0
10.3341276646 35.2574698925 0 -0 0
13.5761916637 35.2574698925 0 -0 0
16.8182556629 35.2574698925 0 -0 0
20.0603196621 35.2574698925 0 -0 0
23.3023836613 35.2574698925 0 -0 0
26.5444476604 35.2574698925 0 -0 0
29.7865116596 35.2574698925 0 -0 0
33.0285756588 35.2574698925 0 -0 0
36.270639658 35.2574698925 0 -0 0
39.5127036572 35.2574698925 0 -0 0
42.7547676563 35.2574698925 0 -0 0
-35.0547683239 32.0154058933 0 -0 0
-31.8127043247 32.0154058933 0 -0 0
-28.5706403255 32.0154058933 0 -0 0
-25.3285763264 32.0154058933 0 -0 0
-22.0865123272 32.0154058933 0 -0 0
-18.844448328 32.0154058933 0 -0 0
-15.6023843288 32.0154058933 0 -0 0
-12.3603203297 32.0154058933 0 -0 0
-9.1182563305 32.0154058933 0 -0 0
-5.8761923313 32.0154058933 0 -0 0
-2.6341283321 32.0154058933 0 -0 0
0.607935667 32.0154058933 0 -0 0
3.8499996662 32.0154058933 0 -0 0
7.0920636654 32.0154058933 0 -0 0
10.3341276646 32.0154058933 0 -0 0
13.5761916637 32.0154058933 0 -0 0
16.8182556629 32.0154058933 0 -0 0
20.0603196621 32.0154058933 0 -0 0
23.3023836613 32.0154058933 0 -0 0
26.5444476604 32.0154058933 0 -0 0
29.7865116596 32.0154058933 0 -0 0
33.0285756588 32.0154058933 0 -0 0
36.270639658 32.0154058933 0 -0 0
39.5127036572 32.0154058933 0 -0 0
42.7547676563 32.0154058933 0 -0 0
-35.0547683239 28.7733418941 0 -0 0
-31.8127043247 28.7733418941 0 -0 0
-28.5706403255 28.7733418941 0 -0 0
-25.3285763264 28.7733418941 0 -0 0
-22.0865123272 28.7733418941 0 -0 0
-18.844448328 28.7733418941 0 -0 0
-15.6023843288 28.7733418941 0 -0 0
-12.3603203297 28.7733418941 0 -0 0
-9.1182563305 28.7733418941 0 -0 0
-5.8761923313 28.7733418941 0 -0 0
-2.6341283321 28.7733418941 0 -0 0
0.607935667 28.7733418941 0 -0 0
3.8499996662 28.7733418941 0 -0 0
7.0920636654 28.7733418941 0 -0 0
10.3341276646 28.7733418941 0 -0 0
13.5761916637 28.7733418941 0 -0 0
16.8182556629 28.7733418941 0 -0 0
20.0603196621 28.7733418941 0 -0 0
23.3023836613 28.7733418941 0 -0 0
26.5444476604 28.7733418941 0 -0 0
29.7865116596 28.7733418941 0 -0 0
33.0285756588 28.7733418941 0 -0 0
36.270639658 28.7733418941 0 -0 0
39.5127036572 28.7733418941 0 -0 0
42.7547676563 28.7733418941 0 -0 0
-35.0547683239 25.531277895 0 -0 0
-31.8127043247 25.531277895 0 -0 0
-28.5706403255 25.531277895 0 -0 0
-25.3285763264 25.531277895 0 -0 0
-22.0865123272 25.531277895 0 -0 0
-18.844448328 25.531277895 0 -0 0
-15.6023843288 25.531277895 0 -0 0
-12.3603203297 25.531277895 0 -0 0
-9.1182563305 25.531277895 10.4601013144 2.0248296337 1
-5.8761923313 25.531277895 9.4503529361 0.374194996 1
-2.6341283321 25.531277895 6.7581708811 -1.3645391532 1
0.607935667 25.531277895 3.727688997 -1.7881268216 1
3.8499996662 25.531277895 3.0179815378 -1.7300876235 1
7.0920636654 25.531277895 3.9225953616 -1.5200372705 1
10.3341276646 25.531277895 5.7394276884 -2.1963286471 1
13.5761916637 25.531277895 6.1865662808 -3.0901248404 1
16.8182556629 25.531277895 6.6396905463 -3.5428707741 1
20.0603196621 25.531277895 0 -0 0
23.3023836613 25.531277895 0 -0 0
26.5444476604 25.531277895 0 -0 0
29.7865116596 25.531277895 0 -0 0
33.0285756588 25.531277895 0 -0 0
36.270639658 25.531277895 0 -0 0
39.5127036572 25.531277895 0 -0 0
42.7547676563 25.531277895 0 -0 0
-35.0547683239 22.2892138958 0 -0 0
-31.8127043247 22.2892138958 0 -0 0
-28.5706403255 22.2892138958 0 -0 0
-25.3285763264 22.2892138958 0 -0 0
-22.0865123272 22.2892138958 0 -0 0
-18.844448328 22.2892138958 0 -0 0
-15.6023843288 22.2892138958 8.8942306487 6.0221396252 1
-12.3603203297 22.2892138958 10.1000049879 4.8469657713 1
-9.1182563305 22.2892138958 11.377476965 1.84950639 1
-5.8761923313 22.2892138958 11.7833408635 -2.0157122314 1
-2.6341283321 22.2892138958 9.0545352096 -4.2202286054 1
0.607935667 22.2892138958 5.4656755409 -4.2608930771 1
3.8499996662 22.2892138958 4.0945738569 -3.8535517826 1
7.0920636654 22.2892138958 5.5669452541 -3.4393525083 1
10.3341276646 22.2892138958 7.9169644503 -3.6810832375 1
13.5761916637 22.2892138958 8.2410422671 -4.2858792764 1
16.8182556629 22.2892138958 8.5273895702 -5.2593268304 1
20.0603196621 22.2892138958 8.682396279 -6.2853262626 1
23.3023836613 22.2892138958 0 -0 0
26.5444476604 22.2892138958 0 -0 0
29.7865116596 22.2892138958 0 -0 0
33.0285756588 22.2892138958 0 -0 0
36.270639658 22.2892138958 0 -0 0
39.5127036572 22.2892138958 0 -0 0
42.7547676563 22.2892138958 0 -0 0
-35.0547683239 19.0471498966 0 -0 0
-31.8127043247 19.0471498966 0 -0 0
-28.5706403255 19.0471498966 0 -0 0
-25.3285763264 19.0471498966 0 -0 0
-22.0865123272 19.0471498966 0 -0 0
-18.844448328 19.0471498966 9.3409060641 5.6385837117 1
-15.6023843288 19.0471498966 10.0723284967 6.7424627165 1
-12.3603203297 19.0471498966 11.6239596374 6.3547243201 1
-9.1182563305 19.0471498966 12.9209291353 2.779529583 1
-5.8761923313 19.0471498966 14.2617259341 -2.8197067224 1
-2.6341283321 19.0471498966 12.2546667201 -5.2163636839 1
0.607935667 19.0471498966 8.7766851225 -4.6515382569 1
3.8499996662 19.0471498966 5.7560241626 -2.7656460463 1
7.0920636654 19.0471498966 6.1970538902 -1.3201783231 1
10.3341276646 19.0471498966 8.68457146 -1.7776573287 1
13.5761916637 19.0471498966 10.2928974078 -4.1364023101 1
16.8182556629 19.0471498966 11.178680396 -7.7171775157 1
20.0603196621 19.0471498966 10.6543893044 -9.3548937703 1
23.3023836613 19.0471498966 9.9379799688 -9.0481733184 1
26.5444476604 19.0471498966 0 -0 0
29.7865116596 19.0471498966 0 -0 0
33.0285756588 19.0471498966 0 -0 0
36.270639658 19.0471498966 0 -0 0
39.5127036572 19.0471498966 0 -0 0
42.7547676563 19.0471498966 0 -0 0
-35.0547683239 15.8050858974 0 -0 0
-31.8127043247 15.8050858974 0 -0 0
-28.5706403255 15.8050858974 0 -0 0
-25.3285763264 15.8050858974 0 -0 0
-22.0865123272 15.8050858974 9.6757408213 7.1388354101 1
-18.844448328 15.8050858974 9.8281055487 6.7841758284 1
-15.6023843288 15.8050858974 11.2172635903 7.7388894698 1
-12.3603203297 15.8050858974 13.5989249673 7.2859729395 1
-9.1182563305 15.8050858974 14.9517788633 3.8034033526 1
-5.8761923313 15.8050858974 16.3218627051 -1.7035683201 1
-2.6341283321 15.8050858974 15.7563204709 -3.8982079108 1
0.607935667 15.8050858974 13.4846222845 -2.8165333253 1
3.8499996662 15.8050858974 8.8590279829 -0.0294071494 1
7.0920636654 15.8050858974 7.1388577537 1.7862781895 1
10.3341276646 15.8050858974 9.1158980203 0.6275944134 1
13.5761916637 15.8050858974 12.223046279 -3.5002406682 1
16.8182556629 15.8050858974 14.1350968229 -8.9993863391 1
20.0603196621 15.8050858974 12.9503985506 -11.3876366667 1
23.3023836613 15.8050858974 11.2452450417 -10.8027835112 1
26.5444476604 15.8050858974 9.0546898032 -9.5051467243 1
29.7865116596 15.8050858974 0 -0 0
33.0285756588 15.8050858974 0 -0 0
36.270639658 15.8050858974 0 -0 0
39.5127036572 15.8050858974 0 -0 0
42.7547676563 15.8050858974 0 -0 0
-35.0547683239 12.5630218983 0 -0 0
-31.8127043247 12.5630218983 0 -0 0
-28.5706403255 12.5630218983 0 -0 0
-25.3285763264 12.5630218983 0 -0 0
-22.0865123272 12.5630218983 9.4518988726 9.4589842138 1
-18.844448328 12.5630218983 9.6939991773 8.670037241 1
-15.6023843288 12.5630218983 11.8060226512 7.7018365111 1
-12.3603203297 12.5630218983 15.0341615799 5.8107394462 1
-9.1182563305 12.5630218983 16.815974217 2.9605050063 1
-5.8761923313 12.5630218983 17.8291145974 -0.4142336955 1
-2.6341283321 12.5630218983 17.769181778 -1.1573653896 1
0.607935667 12.5630218983 16.6610266886 0.0183064648 1
3.8499996662 12.5630218983 12.6213978922 2.1771596379 1
7.0920636654 12.5630218983 10.5919890253 2.7218897015 1
10.3341276646 12.5630218983 11.2873899288 0.7299439798 1
13.5761916637 12.5630218983 14.0057550762 -3.2842799765 1
16.8182556629 12.5630218983 16.3837557238 -8.6048929246 1
20.0603196621 12.5630218983 15.4146600415 -11.8102268739 1
23.3023836613 12.5630218983 13.5929803583 -12.3516102264 1
26.5444476604 12.5630218983 10.151085509 -11.1966156754 1
29.7865116596 12.5630218983 7.9560530934 -10.5547077995 1
33.0285756588 12.5630218983 0 -0 0
36.270639658 12.5630218983 0 -0 0
39.5127036572 12.5630218983 0 -0 0
42.7547676563 12.5630218983 0 -0 0
-35.0547683239 9.3209578991 0 -0 0
-31.8127043247 9.3209578991 0 -0 0
-28.5706403255 9.3209578991 0 -0 0
-25.3285763264 9.3209578991 6.8992176621 11.676545635 1
-22.0865123272 9.3209578991 7.3798306116 10.3761762845 1
-18.844448328 9.3209578991 8.5741052361 9.3096558024 1
-15.6023843288 9.3209578991 11.087772081 6.8357617983 1
-12.3603203297 9.3209578991 14.1549766006 3.6186723905 1
-9.1182563305 9.3209578991 16.5222112495 0.9207125487 1
-5.8761923313 9.3209578991 17.0913610716 -0.3876521924 1
-2.6341283321 9.3209578991 15.418952431 0.2849311256 1
0.607935667 9.3209578991 14.0355469641 2.1780678757 1
3.8499996662 9.3209578991 12.3043081916 2.4820956202 1
7.0920636654 9.3209578991 13.3806665066 0.4496356423 1
10.3341276646 9.3209578991 14.2413074941 -3.0732487691 1
13.5761916637 9.3209578991 15.7182372905 -5.5942503582 1
16.8182556629 9.3209578991 17.7566826395 -8.207557644 1
20.0603196621 9.3209578991 17.46398975 -10.8287395441 1
23.3023836613 9.3209578991 15.9991617381 -12.1459656417 1
26.5444476604 9.3209578991 11.9232758988 -12.2267867208 1
29.7865116596 9.3209578991 8.5570075403 -11.6659438921 1
33.0285756588 9.3209578991 0 -0 0
36.270639658 9.3209578991 0 -0 0
39.5127036572 9.3209578991 0 -0 0
42.7547676563 9.3209578991 0 -0 0
-35.0547683239 6.0788938999 0 -0 0
-31.8127043247 6.0788938999 0 -0 0
-28.5706403255 6.0788938999 0 -0 0
-25.3285763264 6.0788938999 1.1633284926 13.6304342942 1
-22.0865123272 6.0788938999 3.4843519431 10.0143770123 1
-18.844448328 6.0788938999 6.1262204065 8.1021525506 1
-15.6023843288 6.0788938999 8.7638538492 5.5937116959 1
-12.3603203297 6.0788938999 11.4893061494 2.7425515057 1
-9.1182563305 6.0788938999 13.9725850753 0.2007870944 1
-5.8761923313 6.0788938999 14.2272901977 -0.5809049786 1
-2.6341283321 6.0788938999 10.9283026882 1.3722419632 1
0.607935667 6.0788938999 8.4061821068 3.8368040361 1
3.8499996662 6.0788938999 8.5173071654 2.8644187096 1
7.0920636654 6.0788938999 12.1558209871 -2.0227098588 1
10.3341276646 6.0788938999 14.0036946326 -6.9188456212 1
13.5761916637 6.0788938999 15.0936849677 -8.4775319091 1
16.8182556629 6.0788938999 16.555041869 -8.7610929032 1
20.0603196621 6.0788938999 17.0456037656 -9.6841522862 1
23.3023836613 6.0788938999 16.2693008628 -11.3762909419 1
26.5444476604 6.0788938999 13.189239707 -12.3833598981 1
29.7865116596 6.0788938999 9.336509807 -12.3732811165 1
33.0285756588 6.0788938999 6.307856476 -12.0209525173 1
36.270639658 6.0788938999 0 -0 0
39.5127036572 6.0788938999 0 -0 0
42.7547676563 6.0788938999 0 -0 0
-35.0547683239 2.8368299007 0 -0 0
-31.8127043247 2.8368299007 0 -0 0
-28.5706403255 2.8368299007 -6.6101166595 18.3983513784 1
-25.3285763264 2.8368299007 -4.3135451997 13.5616558191 1
-22.0865123272 2.8368299007 -1.5025472028 8.496462989 1
-18.844448328 2.8368299007 1.448948345 6.087011591 1
-15.6023843288 2.8368299007 3.6124928715 4.6640002567 1
-12.3603203297 2.8368299007 5.8229589876 2.4804831057 1
-9.1182563305 2.8368299007 8.0160438854 -0.6743804692 1
-5.8761923313 2.8368299007 8.0320654645 -1.7264397265 1
-2.6341283321 2.8368299007 4.7581242405 0.3742991655 1
0.607935667 2.8368299007 2.1572664239 3.762865394 1
3.8499996662 2.8368299007 3.1989636038 2.8756415446 1
7.0920636654 2.8368299007 7.6028041788 -2.3708482756 1
10.3341276646 2.8368299007 10.9635307171 -7.831849774 1
13.5761916637 2.8368299007 13.0860882992 -10.1066440607 1
16.8182556629 2.8368299007 14.7158810252 -9.4934459171 1
20.0603196621 2.8368299007 15.4407453051 -8.3121958079 1
23.3023836613 2.8368299007 15.1105658701 -8.7859589301 1
26.5444476604 2.8368299007 13.200595094 -10.3321847279 1
29.7865116596 2.8368299007 9.6767124666 -11.5987173924 1
33.0285756588 2.8368299007 6.640848187 -11.6050509012 1
36.270639658 2.8368299007 0 -0 0
39.5127036572 2.8368299007 0 -0 0
42.7547676563 2.8368299007 0 -0 0
-35.0547683239 -0.4052340984 0 -0 0
-31.8127043247 -0.4052340984 0 -0 0
-28.5706403255 -0.4052340984 -11.2366010824 15.4402163049 1
-25.3285763264 -0.4052340984 -9.6276265659 11.331903239 1
-22.0865123272 -0.4052340984 -7.3153306367 6.4242811983 1
-18.844448328 -0.4052340984 -5.4716642334 4.0701996915 1
-15.6023843288 -0.4052340984 -4.5809427026 3.1962280207 1
-12.3603203297 -0.4052340984 -3.3547511313 0.5901376468 1
-9.1182563305 -0.4052340984 -1.0653349119 -3.0082702181 1
-5.8761923313 -0.4052340984 -0.0880797343 -4.3396585437 1
-2.6341283321 -0.4052340984 -0.4602124373 -1.4007903083 1
0.607935667 -0.4052340984 -1.0542385145 2.6802351661 1
3.8499996662 -0.4052340984 1.2227370674 3.1648950273 1
7.0920636654 -0.4052340984 5.5707799013 -0.3788983267 1
10.3341276646 -0.4052340984 9.911177294 -4.7123023192 1
13.5761916637 -0.4052340984 13.34769941 -7.8025476339 1
16.8182556629 -0.4052340984 15.5298516379 -7.9178104883 1
20.0603196621 -0.4052340984 15.6999952393 -6.4626910786 1
23.3023836613 -0.4052340984 14.310163266 -6.2946199983 1
26.5444476604 -0.4052340984 12.1361791387 -7.6928380735 1
29.7865116596 -0.4052340984 8.9466119305 -9.4270461311 1
33.0285756588 -0.4052340984 6.4255837706 -9.7127146715 1
36.270639658 -0.4052340984 0 -0 0
39.5127036572 -0.4052340984 0 -0 0
42.7547676563 -0.4052340984 0 -0 0
-35.0547683239 -3.6472980976 0 -0 0
-31.8127043247 -3.6472980976 0 -0 0
-28.5706403255 -3.6472980976 -13.7386583062 11.0062770702 1
-25.3285763264 -3.6472980976 -13.2179119987 7.7792366018 1
-22.0865123272 -3.6472980976 -12.492603262 4.168838897 1
-18.844448328 -3.6472980976 -12.0257461283 2.1350736293 1
-15.6023843288 -3.6472980976 -11.8710002963 2.4296432314 1
-12.3603203297 -3.6472980976 -11.0092409204 1.8086491291 1
-9.1182563305 -3.6472980976 -8.6248789854 -0.2807163161 1
-5.8761923313 -3.6472980976 -6.4545640419 -1.8380734043 1
-2.6341283321 -3.6472980976 -4.4395088335 -0.5622571191 1
0.607935667 -3.6472980976 -2.1944397059 3.2252466385 1
3.8499996662 -3.6472980976 1.5538594634 5.3358410269 1
7.0920636654 -3.6472980976 6.6204581295 5.261274952 1
10.3341276646 -3.6472980976 12.0459326778 2.5812438978 1
13.5761916637 -3.6472980976 16.6362397701 -1.918223873 1
16.8182556629 -3.6472980976 18.8519400287 -5.1338493211 1
20.0603196621 -3.6472980976 16.7051498913 -6.1076196498 1
23.3023836613 -3.6472980976 13.1288165358 -5.9476882877 1
26.5444476604 -3.6472980976 9.9713317379 -6.4990036786 1
29.7865116596 -3.6472980976 7.5782497547 -7.4904659224 1
33.0285756588 -3.6472980976 5.8660634423 -7.6589265062 1
36.270639658 -3.6472980976 0 -0 0
39.5127036572 -3.6472980976 0 -0 0
42.7547676563 -3.6472980976 0 -0 0
-35.0547683239 -6.8893620968 0 -0 0
-31.8127043247 -6.8893620968 0 -0 0
-28.5706403255 -6.8893620968 -13.2946484237 8.0942531772 1
-25.3285763264 -6.8893620968 -13.9705729423 5.8580390655 1
-22.0865123272 -6.8893620968 -14.9043415591 2.5685714453 1
-18.844448328 -6.8893620968 -15.5279143861 0.9489924684 1
-15.6023843288 -6.8893620968 -15.3543987106 2.7935329902 1
-12.3603203297 -6.8893620968 -13.5359026904 5.7217901226 1
-9.1182563305 -6.8893620968 -10.3384892503 6.6738702369 1
-5.8761923313 -6.8893620968 -7.4608250048 4.8498348121 1
-2.6341283321 -6.8893620968 -4.7619591897 3.9863691691 1
0.607935667 -6.8893620968 -1.9003103334 6.2877363535 1
3.8499996662 -6.8893620968 1.6513887347 9.4931155939 1
7.0920636654 -6.8893620968 6.3179117062 12.1946952522 1
10.3341276646 -6.8893620968 11.7775484326 10.8601788207 1
13.5761916637 -6.8893620968 16.1999076365 3.6699180732 1
16.8182556629 -6.8893620968 16.9622500076 -4.1883285672 1
20.0603196621 -6.8893620968 12.7091527382 -8.1401844011 1
23.3023836613 -6.8893620968 8.5539029858 -7.273489502 1
26.5444476604 -6.8893620968 6.4282553422 -6.3666238042 1
29.7865116596 -6.8893620968 5.7996558059 -6.4309824709 1
33.0285756588 -6.8893620968 5.1793801716 -6.3011618462 1
36.270639658 -6.8893620968 0 -0 0
39.5127036572 -6.8893620968 0 -0 0
42.7547676563 -6.8893620968 0 -0 0
-35.0547683239 -10.131426096 0 -0 0
-31.8127043247 -10.131426096 0 -0 0
-28.5706403255 -10.131426096 -10.7028918555 7.7336073186 1
-25.3285763264 -10.131426096 -11.7521298541 6.5684458194 1
-22.0865123272 -10.131426096 -13.4034461231 3.4141987319 1
-18.844448328 -10.131426096 -13.7445884222 1.1540823881 1
-15.6023843288 -10.131426096 -11.9954264479 3.0703845593 1
-12.3603203297 -10.131426096 -8.3047451185 8.5391779402 1
-9.1182563305 -10.131426096 -5.4359271324 11.5824403715 1
-5.8761923313 -10.131426096 -4.1291750568 10.3982590218 1
-2.6341283321 -10.131426096 -2.5697158007 8.3537126583 1
0.607935667 -10.131426096 -0.5757604369 9.4550058427 1
3.8499996662 -10.131426096 1.4418048802 12.8868219104 1
7.0920636654 -10.131426096 3.5571205649 17.0497258604 1
10.3341276646 -10.131426096 6.0770101063 15.9997946059 1
13.5761916637 -10.131426096 7.0103221887 5.7164481872 1
16.8182556629 -10.131426096 5.7093284248 -5.7108399401 1
20.0603196621 -10.131426096 1.8288729683 -10.4204818595 1
23.3023836613 -10.131426096 0.7538115642 -7.5013991962 1
26.5444476604 -10.131426096 1.4692108326 -5.422449706 1
29.7865116596 -10.131426096 3.3467678184 -5.5428310596 1
33.0285756588 -10.131426096 4.1714669891 -5.5308415971 1
36.270639658 -10.131426096 0 -0 0
39.5127036572 -10.131426096 0 -0 0
42.7547676563 -10.131426096 0 -0 0
-35.0547683239 -13.3734900951 0 -0 0
-31.8127043247 -13.3734900951 0 -0 0
-28.5706403255 -13.3734900951 0 -0 0
-25.3285763264 -13.3734900951 -9.448040674 6.7687871171 1
-22.0865123272 -13.3734900951 -11.0240517171 3.2207226605 1
-18.844448328 -13.3734900951 -9.9093439099 -0.0115623166 1
-15.6023843288 -13.3734900951 -6.9591535009 0.5308531318 1
-12.3603203297 -13.3734900951 -2.707149559 4.8772751856 1
-9.1182563305 -13.3734900951 -0.8602514085 7.8686986207 1
-5.8761923313 -13.3734900951 -1.129484862 8.3533328169 1
-2.6341283321 -13.3734900951 -0.5899143616 8.1158793801 1
0.607935667 -13.3734900951 0.4245227788 9.4445731866 1
3.8499996662 -13.3734900951 1.2356198216 13.401011273 1
7.0920636654 -13.3734900951 0.2293804852 17.3554154867 1
10.3341276646 -13.3734900951 -2.4447440421 15.2187101697 1
13.5761916637 -13.3734900951 -5.6043315553 3.7276437059 1
16.8182556629 -13.3734900951 -7.0921746974 -7.1966202231 1
20.0603196621 -13.3734900951 -6.9487359419 -9.4511881041 1
23.3023836613 -13.3734900951 -4.3751078952 -4.9025941236 1
26.5444476604 -13.3734900951 -1.6389933129 -2.5206902882 1
29.7865116596 -13.3734900951 1.2547894347 -3.1571804416 1
33.0285756588 -13.3734900951 3.0618592628 -3.9714258204 1
36.270639658 -13.3734900951 0 -0 0
39.5127036572 -13.3734900951 0 -0 0
42.7547676563 -13.3734900951 0 -0 0
-35.0547683239 -16.6155540943 0 -0 0
-31.8127043247 -16.6155540943 0 -0 0
-28.5706403255 -16.6155540943 0 -0 0
-25.3285763264 -16.6155540943 -10.0070144896 4.5750430826 1
-22.0865123272 -16.6155540943 -10.974438024 0.0422083607 1
-18.844448328 -16.6155540943 -8.8227347071 -4.107798257 1
-15.6023843288 -16.6155540943 -4.8413729231 -4.434656344 1
-12.3603203297 -16.6155540943 -0.4934371649 -1.4566393793 1
-9.1182563305 -16.6155540943 0.9629788914 1.0948945319 1
-5.8761923313 -16.6155540943 0.4516174302 2.9333822743 1
-2.6341283321 -16.6155540943 0.886364828 4.8326018468 1
0.607935667 -16.6155540943 1.8012565633 7.2619680476 1
3.8499996662 -16.6155540943 2.2179830815 11.7987748659 1
7.0920636654 -16.6155540943 -0.9659977704 14.9253964901 1
10.3341276646 -16.6155540943 -7.4391196934 12.1976216618 1
13.5761916637 -16.6155540943 -12.7590200614 2.6816781409 1
16.8182556629 -16.6155540943 -12.5858389362 -4.6577929592 1
20.0603196621 -16.6155540943 -8.2890713752 -4.4954330878 1
23.3023836613 -16.6155540943 -3.8308802609 -0.4088357879 1
26.5444476604 -16.6155540943 -1.2405818401 1.3722463413 1
29.7865116596 -16.6155540943 0.6284847234 0.4713595984 1
33.0285756588 -16.6155540943 0 -0 0
36.270639658 -16.6155540943 0 -0 0
39.5127036572 -16.6155540943 0 -0 0
42.7547676563 -16.6155540943 0 -0 0
-35.0547683239 -19.8576180935 0 -0 0
-31.8127043247 -19.8576180935 0 -0 0
-28.5706403255 -19.8576180935 0 -0 0
-25.3285763264 -19.8576180935 0 -0 0
-22.0865123272 -19.8576180935 -13.5266101625 -3.8758582579 1
-18.844448328 -19.8576180935 -10.404803889 -7.7575180051 1
-15.6023843288 -19.8576180935 -5.0999480198 -7.8953901813 1
-12.3603203297 -19.8576180935 0.0460195227 -4.9283381942 1
-9.1182563305 -19.8576180935 2.1359797534 -2.0783591961 1
-5.8761923313 -19.8576180935 2.4995560978 0.1433147617 1
-2.6341283321 -19.8576180935 3.1228241156 2.3231861765 1
0.607935667 -19.8576180935 3.9903692799 4.9112106063 1
3.8499996662 -19.8576180935 4.1969773575 9.5552018546 1
7.0920636654 -19.8576180935 0.1668452009 12.2040119354 1
10.3341276646 -19.8576180935 -6.750773937 10.3398177895 1
13.5761916637 -19.8576180935 -11.1450562763 4.6826934073 1
16.8182556629 -19.8576180935 -9.5567906668 1.1140405181 1
20.0603196621 -19.8576180935 -4.06742546 2.0842015982 1
23.3023836613 -19.8576180935 -0.2266793801 3.9622588998 1
26.5444476604 -19.8576180935 1.4126595984 4.3826195766 1
29.7865116596 -19.8576180935 1.7152588613 3.5237479618 1
33.0285756588 -19.8576180935 0 -0 0
36.270639658 -19.8576180935 0 -0 0
39.5127036572 -19.8576180935 0 -0 0
42.7547676563 -19.8576180935 0 -0 0
-35.0547683239 -23.0996820927 0 -0 0
-31.8127043247 -23.0996820927 0 -0 0
-28.5706403255 -23.0996820927 0 -0 0
-25.3285763264 -23.0996820927 0 -0 0
-22.0865123272 -23.0996820927 -14.7328464709 -5.501177732 1
-18.844448328 -23.0996820927 -10.2812944295 -7.6685674737 1
-15.6023843288 -23.0996820927 -4.0039584244 -7.5607142449 1
-12.3603203297 -23.0996820927 1.6723210778 -5.9328642056 1
-9.1182563305 -23.0996820927 4.6306339944 -3.521194751 1
-5.8761923313 -23.0996820927 5.5194034783 -1.0546422093 1
-2.6341283321 -23.0996820927 6.1808517506 1.645202875 1
0.607935667 -23.0996820927 6.7184596362 4.5033862066 1
3.8499996662 -23.0996820927 6.2220745107 8.3560315632 1
7.0920636654 -23.0996820927 2.3517988349 10.974575709 1
10.3341276646 -23.0996820927 -2.8448988453 11.10022774 1
13.5761916637 -23.0996820927 -5.2470783027 9.1370755392 1
16.8182556629 -23.0996820927 -3.5248726911 7.5270406069 1
20.0603196621 -23.0996820927 0.7135399174 7.1372798114 1
23.3023836613 -23.0996820927 3.5947704604 6.4072112811 1
26.5444476604 -23.0996820927 4.5616722413 5.553307799 1
29.7865116596 -23.0996820927 0 -0 0
33.0285756588 -23.0996820927 0 -0 0
36.270639658 -23.0996820927 0 -0 0
39.5127036572 -23.0996820927 0 -0 0
42.7547676563 -23.0996820927 0 -0 0
-35.0547683239 -26.3417460918 0 -0 0
-31.8127043247 -26.3417460918 0 -0 0
-28.5706403255 -26.3417460918 0 -0 0
-25.3285763264 -26.3417460918 0 -0 0
-22.0865123272 -26.3417460918 0 -0 0
-18.844448328 -26.3417460918 -6.4327313116 -4.6050342515 1
-15.6023843288 -26.3417460918 -0.4594238814 -5.00978731 1
-12.3603203297 -26.3417460918 4.2221287184 -4.8018914552 1
-9.1182563305 -26.3417460918 7.128641891 -3.2253755672 1
-5.8761923313 -26.3417460918 8.1015450459 -0.8299296145 1
-2.6341283321 -26.3417460918 9.0578656158 1.5474352214 1
0.607935667 -26.3417460918 9.3907015254 3.6065669828 1
3.8499996662 -26.3417460918 8.4361201341 6.1878471134 1
7.0920636654 -26.3417460918 5.0898650111 8.7018038214 1
10.3341276646 -26.3417460918 1.456274333 10.5161064888 1
13.5761916637 -26.3417460918 0.556103416 11.4300665859 1
16.8182556629 -26.3417460918 1.871192981 10.8796805686 1
20.0603196621 -26.3417460918 4.2757210844 9.5636187544 1
23.3023836613 -26.3417460918 5.742206147 7.0038775658 1
26.5444476604 -26.3417460918 0 -0 0
29.7865116596 -26.3417460918 0 -0 0
33.0285756588 -26.3417460918 0 -0 0
36.270639658 -26.3417460918 0 -0 0
39.5127036572 -26.3417460918 0 -0 0
42.7547676563 -26.3417460918 0 -0 0
-35.0547683239 -29.583810091 0 -0 0
-31.8127043247 -29.583810091 0 -0 0
-28.5706403255 -29.583810091 0 -0 0
-25.3285763264 -29.583810091 0 -0 0
-22.0865123272 -29.583810091 0 -0 0
-18.844448328 -29.583810091 0 -0 0
-15.6023843288 -29.583810091 2.1261322584 -2.576087052 1
-12.3603203297 -29.583810091 5.0942244313 -2.5702626153 1
-9.1182563305 -29.583810091 7.6452014884 -1.3090839639 1
-5.8761923313 -29.583810091 9.1656131654 0.4966879343 1
-2.6341283321 -29.583810091 10.7348009519 1.9569302591 1
0.607935667 -29.583810091 10.9941342217 3.4826471858 1
3.8499996662 -29.583810091 9.4877066277 4.8430305777 1
7.0920636654 -29.583810091 6.2757269629 5.9817761883 1
10.3341276646 -29.583810091 3.4590052266 7.0728746459 1
13.5761916637 -29.583810091 3.5001935655 8.9749883203 1
16.8182556629 -29.583810091 4.8336471657 10.1118911867 1
20.0603196621 -29.583810091 6.5187687188 9.4201576553 1
23.3023836613 -29.583810091 0 -0 0
26.5444476604 -29.583810091 0 -0 0
29.7865116596 -29.583810091 0 -0 0
33.0285756588 -29.583810091 0 -0 0
36.270639658 -29.583810091 0 -0 0
39.5127036572 -29.583810091 0 -0 0
42.7547676563 -29.583810091 0 -0 0
-35.0547683239 -32.8258740902 0 -0 0
-31.8127043247 -32.8258740902 0 -0 0
-28.5706403255 -32.8258740902 0 -0 0
-25.3285763264 -32.8258740902 0 -0 0
-22.0865123272 -32.8258740902 0 -0 0
-18.844448328 -32.8258740902 0 -0 0
-15.6023843288 -32.8258740902 0 -0 0
-12.3603203297 -32.8258740902 0 -0 0
-9.1182563305 -32.8258740902 7.3366065884 1.2319590922 1
-5.8761923313 -32.8258740902 9.5614411579 1.9277582555 1
-2.6341283321 -32.8258740902 11.4208163297 2.4808786481 1
0.607935667 -32.8258740902 11.3364045714 3.2411054715 1
3.8499996662 -32.8258740902 9.1790066523 3.5152579924 1
7.0920636654 -32.8258740902 6.218623932 3.0971534167 1
10.3341276646 -32.8258740902 3.9171429159 3.2142653561 1
13.5761916637 -32.8258740902 4.2261037681 5.0459410892 1
16.8182556629 -32.8258740902 5.2965295516 7.0205072534 1
20.0603196621 -32.8258740902 0 -0 0
23.3023836613 -32.8258740902 0 -0 0
26.5444476604 -32.8258740902 0 -0 0
29.7865116596 -32.8258740902 0 -0 0
33.0285756588 -32.8258740902 0 -0 0
36.270639658 -32.8258740902 0 -0 0
39.5127036572 -32.8258740902 0 -0 0
42.7547676563 -32.8258740902 0 -0 0
-35.0547683239 -36.0679380894 0 -0 0
-31.8127043247 -36.0679380894 0 -0 0
-28.5706403255 -36.0679380894 0 -0 0
-25.3285763264 -36.0679380894 0 -0 0
-22.0865123272 -36.0679380894 0 -0 0
-18.844448328 -36.0679380894 0 -0 0
-15.6023843288 -36.0679380894 0 -0 0
-12.3603203297 -36.0679380894 0 -0 0
-9.1182563305 -36.0679380894 0 -0 0
-5.8761923313 -36.0679380894 0 -0 0
-2.6341283321 -36.0679380894 0 -0 0
0.607935667 -36.0679380894 0 -0 0
3.8499996662 -36.0679380894 0 -0 0
7.0920636654 -36.0679380894 0 -0 0
10.3341276646 -36.0679380894 0 -0 0
13.5761916637 -36.0679380894 0 -0 0
16.8182556629 -36.0679380894 0 -0 0
20.0603196621 -36.0679380894 0 -0 0
23.3023836613 -36.0679380894 0 -0 0
26.5444476604 -36.0679380894 0 -0 0
29.7865116596 -36.0679380894 0 -0 0
33.0285756588 -36.0679380894 0 -0 0
36.270639658 -36.0679380894 0 -0 0
39.5127036572 -36.0679380894 0 -0 0
42.7547676563 -36.0679380894 0 -0 0
-35.0547683239 -39.3100020885 0 -0 0
-31.8127043247 -39.3100020885 0 -0 0
-28.5706403255 -39.3100020885 0 -0 0
-25.3285763264 -39.3100020885 0 -0 0
-22.0865123272 -39.3100020885 0 -0 0
-18.844448328 -39.3100020885 0 -0 0
-15.6023843288 -39.3100020885 0 -0 0
-12.3603203297 -39.3100020885 0 -0 0
-9.1182563305 -39.3100020885 0 -0 0
-5.8761923313 -39.3100020885 0 -0 0
-2.6341283321 -39.3100020885 0 -0 0
0.607935667 -39.3100020885 0 -0 0
3.8499996662 -39.3100020885 0 -0 0
7.0920636654 -39.3100020885 0 -0 0
10.3341276646 -39.3100020885 0 -0 0
13.5761916637 -39.3100020885 0 -0 0
16.8182556629 -39.3100020885 0 -0 0
20.0603196621 -39.3100020885 0 -0 0
23.3023836613 -39.3100020885 0 -0 0
26.5444476604 -39.3100020885 0 -0 0
29.7865116596 -39.3100020885 0 -0 0
33.0285756588 -39.3100020885 0 -0 0
36.270639658 -39.3100020885 0 -0 0
39.5127036572 -39.3100020885 0 -0 0
42.7547676563 -39.3100020885 0 -0 0
-35.0547683239 -42.5520660877 0 -0 0
-31.8127043247 -42.5520660877 0 -0 0
-28.5706403255 -42.5520660877 0 -0 0
-25.3285763264 -42.5520660877 0 -0 0
-22.0865123272 -42.5520660877 0 -0 0
-18.844448328 -42.5520660877 0 -0 0
-15.6023843288 -42.5520660877 0 -0 0
-12.3603203297 -42.5520660877 0 -0 0
-9.1182563305 -42.5520660877 0 -0 0
-5.8761923313 -42.5520660877 0 -0 0
-2.6341283321 -42.5520660877 0 -0 0
0.607935667 -42.5520660877 0 -0 0
3.8499996662 -42.5520660877 0 -0 0
7.0920636654 -42.5520660877 0 -0 0
10.3341276646 -42.5520660877 0 -0 0
13.5761916637 -42.5520660877 0 -0 0
16.8182556629 -42.5520660877 0 -0 0
20.0603196621 -42.5520660877 0 -0 0
23.3023836613 -42.5520660877 0 -0 0
26.5444476604 -42.5520660877 0 -0 0
29.7865116596 -42.5520660877 0 -0 0
33.0285756588 -42.5520660877 0 -0 0
36.270639658 -42.5520660877 0 -0 0
39.5127036572 -42.5520660877 0 -0 0
42.7547676563 -42.5520660877 0 -0 0
