TITLE = "B00080"
VARIABLES = "x", "y", "Vx", "Vy", "isValid"
ZONE T="Frame 0", I=25, J=25, F=POINT
-35.0547683239 35.2574698925 0 -0 0
-31.8127043247 35.2574698925 0 -0 0
-28.5706403255 35.2574698925 0 -0 0
-25.3285763264 35.2574698925 0 -0 0
-22.0865123272 35.2574698925 0 -0 0
-18.844448328 35.2574698925 0 -0 0
-15.6023843288 35.2574698925 0 -0 0
-12.3603203297 35.2574698925 0 -0 0
-9.1182563305 35.2574698925 0 -0 0
-5.8761923313 35.2574698925 0 -0 0
-2.6341283321 35.2574698925 0 -0 0
0.607935667 35.2574698925 0 -0 0
3.8499996662 35.2574698925 0 -0 0
7.0920636654 35.2574698925 0 -0 0
10.3341276646 35.2574698925 0 -0 0
13.5761916637 35.2574698925 0 -0 0
16.8182556629 35.2574698925 0 -0 0
20.0603196621 35.2574698925 0 -0 0
23.3023836613 35.2574698925 0 -0 0
26.5444476604 35.2574698925 0 -0 0
29.7865116596 35.2574698925 0 -0 0
33.0285756588 35.2574698925 0 -0 0
36.270639658 35.2574698925 0 -0 0
39.5127036572 35.2574698925 0 -0 0
42.7547676563 35.2574698925 0 -0 0
-35.0547683239 32.0154058933 0 -0 0
-31.8127043247 32.0154058933 0 -0 0
-28.5706403255 32.0154058933 0 -0 0
-25.3285763264 32.0154058933 0 -0 0
-22.0865123272 32.0154058933 0 -0 0
-18.844448328 32.0154058933 0 -0 0
-15.6023843288 32.0154058933 0 -0 0
-12.3603203297 32.0154058933 0 -0 0
-9.1182563305 32.0154058933 0 -0 0
-5.8761923313 32.0154058933 0 -0 0
-2.6341283321 32.0154058933 0 -0 0
0.607935667 32.0154058933 0 -0 0
3.8499996662 32.0154058933 0 -0 0
7.0920636654 32.0154058933 0 -0 0
10.3341276646 32.0154058933 0 -0 0
13.5761916637 32.0154058933 0 -0 0
16.8182556629 32.0154058933 0 -0 0
20.0603196621 32.0154058933 0 -0 0
23.3023836613 32.0154058933 0 -0 0
26.5444476604 32.0154058933 0 -0 0
29.7865116596 32.0154058933 0 -0 0
33.0285756588 32.0154058933 0 -0 0
36.270639658 32.0154058933 0 -0 0
39.5127036572 32.0154058933 0 -0 0
42.7547676563 32.0154058933 0 -0 0
-35.0547683239 28.7733418941 0 -0 0
-31.8127043247 28.7733418941 0 -0 0
-28.5706403255 28.7733418941 0 -0 0
-25.3285763264 28.7733418941 0 -0 0
-22.0865123272 28.7733418941 0 -0 0
-18.844448328 28.7733418941 0 -0 0
-15.6023843288 28.7733418941 0 -0 0
-12.3603203297 28.7733418941 0 -0 0
-9.1182563305 28.7733418941 0 -0 0
-5.8761923313 28.7733418941 0 -0 0
-2.6341283321 28.7733418941 0 -0 0
0.607935667 28.7733418941 0 -0 0
3.8499996662 28.7733418941 0 -0 0
7.0920636654 28.7733418941 0 -0 0
10.3341276646 28.7733418941 0 -0 0
13.5761916637 28.7733418941 0 -0 0
16.8182556629 28.7733418941 0 -0 0
20.0603196621 28.7733418941 0 -0 0
23.3023836613 28.7733418941 0 -0 0
26.5444476604 28.7733418941 0 -0 0
29.7865116596 28.7733418941 0 -0 0
33.0285756588 28.7733418941 0 -0 0
36.270639658 28.7733418941 0 -0 0
39.5127036572 28.7733418941 0 -0 0
42.7547676563 28.7733418941 0 -0 0
-35.0547683239 25.531277895 0 -0 0
-31.8127043247 25.531277895 0 -0 0
-28.5706403255 25.531277895 0 -0 0
-25.3285763264 25.531277895 0 -0 0
-22.0865123272 25.531277895 0 -0 0
-18.844448328 25.531277895 0 -0 0
-15.6023843288 25.531277895 0 -0 0
-12.3603203297 25.531277895 0 -0 0
-9.1182563305 25.531277895 2.8684459951 0.4388468471 1
-5.8761923313 25.531277895 3.0803096531 -0.3846096866 1
-2.6341283321 25.531277895 3.0922197052 -0.2455344464 1
0.607935667 25.531277895 2.8321107496 0.8993378624 1
3.8499996662 25.531277895 2.5681118915 1.258654276 1
7.0920636654 25.531277895 1.3685252238 0.5946643422 1
10.3341276646 25.531277895 0.620582557 -1.291212092 1
13.5761916637 25.531277895 1.5838652763 -2.4433674944 1
16.8182556629 25.531277895 4.5066574325 -3.340666804 1
20.0603196621 25.531277895 0 -0 0
23.3023836613 25.531277895 0 -0 0
26.5444476604 25.531277895 0 -0 0
29.7865116596 25.531277895 0 -0 0
33.0285756588 25.531277895 0 -0 0
36.270639658 25.531277895 0 -0 0
39.5127036572 25.531277895 0 -0 0
42.7547676563 25.531277895 0 -0 0
-35.0547683239 22.2892138958 0 -0 0
-31.8127043247 22.2892138958 0 -0 0
-28.5706403255 22.2892138958 0 -0 0
-25.3285763264 22.2892138958 0 -0 0
-22.0865123272 22.2892138958 0 -0 0
-18.844448328 22.2892138958 0 -0 0
-15.6023843288 22.2892138958 3.2915057201 -0.694700401 1
-12.3603203297 22.2892138958 2.4628718087 -0.682751625 1
-9.1182563305 22.2892138958 3.5454922235 -1.326133953 1
-5.8761923313 22.2892138958 4.5320612158 -2.0557069986 1
-2.6341283321 22.2892138958 5.2010933334 -2.2966197704 1
0.607935667 22.2892138958 4.9364845551 -2.1631109396 1
3.8499996662 22.2892138958 3.8000170873 -1.7715659764 1
7.0920636654 22.2892138958 1.5865001621 -1.3680744263 1
10.3341276646 22.2892138958 0.6084355192 -1.5788221113 1
13.5761916637 22.2892138958 2.8352799195 -3.0163024454 1
16.8182556629 22.2892138958 6.47472704 -5.5514460325 1
20.0603196621 22.2892138958 8.3427479827 -7.6126341612 1
23.3023836613 22.2892138958 0 -0 0
26.5444476604 22.2892138958 0 -0 0
29.7865116596 22.2892138958 0 -0 0
33.0285756588 22.2892138958 0 -0 0
36.270639658 22.2892138958 0 -0 0
39.5127036572 22.2892138958 0 -0 0
42.7547676563 22.2892138958 0 -0 0
-35.0547683239 19.0471498966 0 -0 0
-31.8127043247 19.0471498966 0 -0 0
-28.5706403255 19.0471498966 0 -0 0
-25.3285763264 19.0471498966 0 -0 0
-22.0865123272 19.0471498966 0 -0 0
-18.844448328 19.0471498966 7.7638895583 -1.1725385152 1
-15.6023843288 19.0471498966 5.5369915259 -2.6660490848 1
-12.3603203297 19.0471498966 4.0161583396 -3.312184131 1
-9.1182563305 19.0471498966 4.7162163769 -3.7717868368 1
-5.8761923313 19.0471498966 6.3310008369 -3.6755498717 1
-2.6341283321 19.0471498966 7.5535896514 -3.6209912953 1
0.607935667 19.0471498966 7.2764551638 -3.6660897667 1
3.8499996662 19.0471498966 5.169469873 -2.6450264615 1
7.0920636654 19.0471498966 2.1889560094 -1.1230133663 1
10.3341276646 19.0471498966 0.909264013 -0.6319509275 1
13.5761916637 19.0471498966 3.3681361638 -2.6734674666 1
16.8182556629 19.0471498966 7.1882679387 -6.417940443 1
20.0603196621 19.0471498966 8.0862070607 -9.5027046276 1
23.3023836613 19.0471498966 6.4668632956 -9.3452914512 1
26.5444476604 19.0471498966 0 -0 0
29.7865116596 19.0471498966 0 -0 0
33.0285756588 19.0471498966 0 -0 0
36.270639658 19.0471498966 0 -0 0
39.5127036572 19.0471498966 0 -0 0
42.7547676563 19.0471498966 0 -0 0
-35.0547683239 15.8050858974 0 -0 0
-31.8127043247 15.8050858974 0 -0 0
-28.5706403255 15.8050858974 0 -0 0
-25.3285763264 15.8050858974 0 -0 0
-22.0865123272 15.8050858974 6.016429926 4.636091875 1
-18.844448328 15.8050858974 7.1350104249 0.1340635619 1
-15.6023843288 15.8050858974 6.3202414809 -3.1214605513 1
-12.3603203297 15.8050858974 5.1867306167 -3.9454039644 1
-9.1182563305 15.8050858974 5.7716121547 -3.6990161014 1
-5.8761923313 15.8050858974 7.5749193485 -3.1973962294 1
-2.6341283321 15.8050858974 8.8040808088 -3.0486405996 1
0.607935667 15.8050858974 8.3903604125 -2.5727173935 1
3.8499996662 15.8050858974 5.6718412754 -0.6903486802 1
7.0920636654 15.8050858974 2.5395935895 1.0636236628 1
10.3341276646 15.8050858974 1.1712144296 0.6334647073 1
13.5761916637 15.8050858974 3.1492638576 -1.9818477669 1
16.8182556629 15.8050858974 6.4893735809 -6.5809679053 1
20.0603196621 15.8050858974 7.1543406705 -9.342577608 1
23.3023836613 15.8050858974 5.7987523992 -9.1739739042 1
26.5444476604 15.8050858974 3.6184072866 -6.6414436142 1
29.7865116596 15.8050858974 0 -0 0
33.0285756588 15.8050858974 0 -0 0
36.270639658 15.8050858974 0 -0 0
39.5127036572 15.8050858974 0 -0 0
42.7547676563 15.8050858974 0 -0 0
-35.0547683239 12.5630218983 0 -0 0
-31.8127043247 12.5630218983 0 -0 0
-28.5706403255 12.5630218983 0 -0 0
-25.3285763264 12.5630218983 0 -0 0
-22.0865123272 12.5630218983 2.611187058 6.6777169619 1
-18.844448328 12.5630218983 4.4765856455 1.8106953815 1
-15.6023843288 12.5630218983 5.6131753993 -1.4120519426 1
-12.3603203297 12.5630218983 5.5815996455 -1.7199381878 1
-9.1182563305 12.5630218983 6.0734780036 -0.9199374668 1
-5.8761923313 12.5630218983 7.3332145862 -1.0491240915 1
-2.6341283321 12.5630218983 8.3177998279 -1.9235744137 1
0.607935667 12.5630218983 7.9957854741 -1.9784143989 1
3.8499996662 12.5630218983 5.3479077863 -0.2554144755 1
7.0920636654 12.5630218983 2.8861819936 1.1724726166 1
10.3341276646 12.5630218983 1.6338616792 0.0655670334 1
13.5761916637 12.5630218983 2.7702346396 -2.9800523472 1
16.8182556629 12.5630218983 5.3182342591 -6.8608108012 1
20.0603196621 12.5630218983 6.1074517707 -8.5531282058 1
23.3023836613 12.5630218983 5.4767289872 -7.822348907 1
26.5444476604 12.5630218983 3.8251527472 -6.0084635217 1
29.7865116596 12.5630218983 3.1130255351 -5.3138373982 1
33.0285756588 12.5630218983 0 -0 0
36.270639658 12.5630218983 0 -0 0
39.5127036572 12.5630218983 0 -0 0
42.7547676563 12.5630218983 0 -0 0
-35.0547683239 9.3209578991 0 -0 0
-31.8127043247 9.3209578991 0 -0 0
-28.5706403255 9.3209578991 0 -0 0
-25.3285763264 9.3209578991 -0.3102148875 9.4700509454 1
-22.0865123272 9.3209578991 0.4088894956 5.9876271958 1
-18.844448328 9.3209578991 1.7124553416 2.1240823828 1
-15.6023843288 9.3209578991 3.9627441186 0.880567566 1
-12.3603203297 9.3209578991 5.1523915014 1.7125477355 1
-9.1182563305 9.3209578991 6.0346170239 2.4635464953 1
-5.8761923313 9.3209578991 6.6832533471 1.2351796675 1
-2.6341283321 9.3209578991 7.1071576003 -1.258106782 1
0.607935667 9.3209578991 7.1639109838 -3.1187744866 1
3.8499996662 9.3209578991 5.7573726299 -3.3769265643 1
7.0920636654 9.3209578991 4.4084934817 -2.7573408646 1
10.3341276646 9.3209578991 3.463088975 -3.2916210614 1
13.5761916637 9.3209578991 4.0918234788 -5.1988299857 1
16.8182556629 9.3209578991 5.6991119582 -7.9445443205 1
20.0603196621 9.3209578991 6.244477909 -8.7141695021 1
23.3023836613 9.3209578991 5.8346477171 -7.8965109853 1
26.5444476604 9.3209578991 4.4543347272 -7.256703409 1
29.7865116596 9.3209578991 3.1774922965 -8.6235601083 1
33.0285756588 9.3209578991 0 -0 0
36.270639658 9.3209578991 0 -0 0
39.5127036572 9.3209578991 0 -0 0
42.7547676563 9.3209578991 0 -0 0
-35.0547683239 6.0788938999 0 -0 0
-31.8127043247 6.0788938999 0 -0 0
-28.5706403255 6.0788938999 0 -0 0
-25.3285763264 6.0788938999 0.3294764415 7.2849191664 1
-22.0865123272 6.0788938999 -0.0513615949 3.7352360055 1
-18.844448328 6.0788938999 1.1417321064 1.6288718067 1
-15.6023843288 6.0788938999 3.6524897523 2.263263925 1
-12.3603203297 6.0788938999 5.0332967172 3.3466283217 1
-9.1182563305 6.0788938999 5.5462019259 3.6918123994 1
-5.8761923313 6.0788938999 5.7716876399 2.2009949902 1
-2.6341283321 6.0788938999 6.2093483128 -0.9672946058 1
0.607935667 6.0788938999 7.2366666222 -4.2037471706 1
3.8499996662 6.0788938999 7.3852673564 -6.5083131152 1
7.0920636654 6.0788938999 7.0724597794 -7.0295642676 1
10.3341276646 6.0788938999 6.3299229085 -6.5193194587 1
13.5761916637 6.0788938999 6.6034552431 -6.9828171998 1
16.8182556629 6.0788938999 7.1985484166 -8.699197469 1
20.0603196621 6.0788938999 7.3090979762 -9.7265816015 1
23.3023836613 6.0788938999 6.9397477702 -9.5234715072 1
26.5444476604 6.0788938999 5.7009888218 -10.1112710004 1
29.7865116596 6.0788938999 3.7563724605 -12.4006961271 1
33.0285756588 6.0788938999 2.1056181033 -14.7732026612 1
36.270639658 6.0788938999 0 -0 0
39.5127036572 6.0788938999 0 -0 0
42.7547676563 6.0788938999 0 -0 0
-35.0547683239 2.8368299007 0 -0 0
-31.8127043247 2.8368299007 0 -0 0
-28.5706403255 2.8368299007 3.194423321 10.5046315332 1
-25.3285763264 2.8368299007 1.0897151161 6.1178620832 1
-22.0865123272 2.8368299007 0.6865611357 2.7826214561 1
-18.844448328 2.8368299007 2.1304980194 1.9155098788 1
-15.6023843288 2.8368299007 4.5372334605 3.0198731965 1
-12.3603203297 2.8368299007 5.4992465191 3.6472764437 1
-9.1182563305 2.8368299007 4.8759246048 3.7208243745 1
-5.8761923313 2.8368299007 4.2321945165 2.8158053462 1
-2.6341283321 2.8368299007 4.4518355638 0.1323278745 1
0.607935667 2.8368299007 6.1806995725 -3.5957795463 1
3.8499996662 2.8368299007 7.7745275342 -6.8884057684 1
7.0920636654 2.8368299007 8.4518047472 -8.0761397528 1
10.3341276646 2.8368299007 8.2620235246 -7.1145116687 1
13.5761916637 2.8368299007 8.5247814062 -6.2755488179 1
16.8182556629 2.8368299007 8.7956916876 -7.198475347 1
20.0603196621 2.8368299007 8.6758514117 -8.6904587004 1
23.3023836613 2.8368299007 8.5036624638 -10.0146070912 1
26.5444476604 2.8368299007 7.2540879984 -12.06796952 1
29.7865116596 2.8368299007 5.162663525 -15.1837683807 1
33.0285756588 2.8368299007 3.0112446363 -17.3762493971 1
36.270639658 2.8368299007 0 -0 0
39.5127036572 2.8368299007 0 -0 0
42.7547676563 2.8368299007 0 -0 0
-35.0547683239 -0.4052340984 0 -0 0
-31.8127043247 -0.4052340984 0 -0 0
-28.5706403255 -0.4052340984 2.8754957073 9.2354013302 1
-25.3285763264 -0.4052340984 1.2516889563 5.8005042593 1
-22.0865123272 -0.4052340984 0.8057828859 2.9975600785 1
-18.844448328 -0.4052340984 2.4197105891 2.8021367913 1
-15.6023843288 -0.4052340984 4.8217416427 3.7897924683 1
-12.3603203297 -0.4052340984 5.4158106332 3.7850731347 1
-9.1182563305 -0.4052340984 3.6509459294 3.3831468453 1
-5.8761923313 -0.4052340984 1.9504629906 2.7366084063 1
-2.6341283321 -0.4052340984 1.8189703691 0.7813872072 1
0.607935667 -0.4052340984 3.8711494922 -2.5328902034 1
3.8499996662 -0.4052340984 6.1729312413 -5.6100853378 1
7.0920636654 -0.4052340984 7.4180001471 -6.662153125 1
10.3341276646 -0.4052340984 7.6046466211 -5.1923781162 1
13.5761916637 -0.4052340984 8.0945110346 -3.7418171057 1
16.8182556629 -0.4052340984 8.3785013884 -4.4559108578 1
20.0603196621 -0.4052340984 8.5219516177 -6.7146853771 1
23.3023836613 -0.4052340984 8.8760097334 -9.5134549254 1
26.5444476604 -0.4052340984 8.3005221754 -12.5063029169 1
29.7865116596 -0.4052340984 6.8455935923 -15.8450354885 1
33.0285756588 -0.4052340984 4.6604775142 -18.2272355278 1
36.270639658 -0.4052340984 0 -0 0
39.5127036572 -0.4052340984 0 -0 0
42.7547676563 -0.4052340984 0 -0 0
-35.0547683239 -3.6472980976 0 -0 0
-31.8127043247 -3.6472980976 0 -0 0
-28.5706403255 -3.6472980976 2.1398782611 7.0078009836 1
-25.3285763264 -3.6472980976 0.6106900351 4.5877578068 1
-22.0865123272 -3.6472980976 0.2793679054 2.6128688679 1
-18.844448328 -3.6472980976 1.6201049576 2.6706053704 1
-15.6023843288 -3.6472980976 3.835760529 3.3355769891 1
-12.3603203297 -3.6472980976 4.4136596876 2.978489502 1
-9.1182563305 -3.6472980976 2.4435331089 2.1825939672 1
-5.8761923313 -3.6472980976 0.3826407688 1.4878801299 1
-2.6341283321 -3.6472980976 -0.1505999876 0.1472032204 1
0.607935667 -3.6472980976 1.5495543924 -2.5834746359 1
3.8499996662 -3.6472980976 3.688915882 -5.1148300745 1
7.0920636654 -3.6472980976 4.7528016293 -5.4033809411 1
10.3341276646 -3.6472980976 4.6820599356 -3.2824785981 1
13.5761916637 -3.6472980976 4.8826796228 -0.8649514933 1
16.8182556629 -3.6472980976 5.912082229 -1.3396205886 1
20.0603196621 -3.6472980976 7.1104988764 -4.532039778 1
23.3023836613 -3.6472980976 8.3060809043 -8.947663892 1
26.5444476604 -3.6472980976 7.9125410186 -12.912413199 1
29.7865116596 -3.6472980976 7.1002202101 -16.203929487 1
33.0285756588 -3.6472980976 5.4669545619 -18.2556988765 1
36.270639658 -3.6472980976 0 -0 0
39.5127036572 -3.6472980976 0 -0 0
42.7547676563 -3.6472980976 0 -0 0
-35.0547683239 -6.8893620968 0 -0 0
-31.8127043247 -6.8893620968 0 -0 0
-28.5706403255 -6.8893620968 1.9888423749 4.8797148667 1
-25.3285763264 -6.8893620968 0.5484510302 3.417591036 1
-22.0865123272 -6.8893620968 -0.0531093599 2.0186732132 1
-18.844448328 -6.8893620968 0.4836440948 1.5515170072 1
-15.6023843288 -6.8893620968 2.3070826206 1.4433014495 1
-12.3603203297 -6.8893620968 3.246299154 0.6814810584 1
-9.1182563305 -6.8893620968 2.5168727006 -0.2303703036 1
-5.8761923313 -6.8893620968 0.8779695924 -0.9753743133 1
-2.6341283321 -6.8893620968 -0.070668624 -1.6832887729 1
0.607935667 -6.8893620968 1.0363958555 -3.0424526263 1
3.8499996662 -6.8893620968 2.75091466 -4.3659482212 1
7.0920636654 -6.8893620968 3.4367349841 -3.8372056173 1
10.3341276646 -6.8893620968 2.8942830634 -1.8479760034 1
13.5761916637 -6.8893620968 2.4467065059 0.177041947 1
16.8182556629 -6.8893620968 3.4868728463 -0.7476599747 1
20.0603196621 -6.8893620968 4.8734876411 -4.5662369812 1
23.3023836613 -6.8893620968 6.011269155 -9.131656307 1
26.5444476604 -6.8893620968 5.6213773173 -12.6855216489 1
29.7865116596 -6.8893620968 5.3478945009 -15.3829683425 1
33.0285756588 -6.8893620968 4.7616862353 -17.1567445251 1
36.270639658 -6.8893620968 0 -0 0
39.5127036572 -6.8893620968 0 -0 0
42.7547676563 -6.8893620968 0 -0 0
-35.0547683239 -10.131426096 0 -0 0
-31.8127043247 -10.131426096 0 -0 0
-28.5706403255 -10.131426096 2.1029178473 3.2598976586 1
-25.3285763264 -10.131426096 0.6364406352 2.7327776843 1
-22.0865123272 -10.131426096 -0.2257883341 1.8553385262 1
-18.844448328 -10.131426096 0.074005272 0.4584410265 1
-15.6023843288 -10.131426096 2.0139967552 -0.9235875528 1
-12.3603203297 -10.131426096 3.4243397133 -1.9971246091 1
-9.1182563305 -10.131426096 3.8551490491 -2.456456625 1
-5.8761923313 -10.131426096 2.6459476826 -2.8295771649 1
-2.6341283321 -10.131426096 1.7486346347 -3.0214858619 1
0.607935667 -10.131426096 2.9151683037 -2.9733426203 1
3.8499996662 -10.131426096 4.7258035989 -2.7243888649 1
7.0920636654 -10.131426096 5.4186428373 -1.4142248591 1
10.3341276646 -10.131426096 4.4977326684 -0.0767342783 1
13.5761916637 -10.131426096 3.0010942947 0.3048994852 1
16.8182556629 -10.131426096 2.7327604736 -1.5178047208 1
20.0603196621 -10.131426096 2.5792770558 -4.9093083797 1
23.3023836613 -10.131426096 2.7472817092 -8.1605545305 1
26.5444476604 -10.131426096 2.6131780552 -10.992635388 1
29.7865116596 -10.131426096 2.9256462509 -13.8861189123 1
33.0285756588 -10.131426096 3.3438112147 -15.9602910963 1
36.270639658 -10.131426096 0 -0 0
39.5127036572 -10.131426096 0 -0 0
42.7547676563 -10.131426096 0 -0 0
-35.0547683239 -13.3734900951 0 -0 0
-31.8127043247 -13.3734900951 0 -0 0
-28.5706403255 -13.3734900951 0 -0 0
-25.3285763264 -13.3734900951 -0.1489445409 1.3018170053 1
-22.0865123272 -13.3734900951 -0.682754267 0.5591867215 1
-18.844448328 -13.3734900951 0.0765732448 -1.5065365947 1
-15.6023843288 -13.3734900951 2.6751809803 -3.3423791098 1
-12.3603203297 -13.3734900951 4.2575521029 -3.8455986638 1
-9.1182563305 -13.3734900951 4.8096791105 -3.3413057105 1
-5.8761923313 -13.3734900951 3.325322478 -3.1631344109 1
-2.6341283321 -13.3734900951 2.4346030608 -3.0487070265 1
0.607935667 -13.3734900951 3.8928185707 -2.7113021498 1
3.8499996662 -13.3734900951 6.3862487439 -2.2488159101 1
7.0920636654 -13.3734900951 7.3695567764 -1.0513957426 1
10.3341276646 -13.3734900951 5.9450450985 0.214988235 1
13.5761916637 -13.3734900951 3.8910063224 -0.1634076435 1
16.8182556629 -13.3734900951 2.6058562944 -2.2273811377 1
20.0603196621 -13.3734900951 1.4419294308 -4.6487428897 1
23.3023836613 -13.3734900951 0.5565543268 -6.585951739 1
26.5444476604 -13.3734900951 0.7610194933 -8.9186304791 1
29.7865116596 -13.3734900951 1.5241602712 -12.3635948579 1
33.0285756588 -13.3734900951 2.4153867979 -14.9162609714 1
36.270639658 -13.3734900951 0 -0 0
39.5127036572 -13.3734900951 0 -0 0
42.7547676563 -13.3734900951 0 -0 0
-35.0547683239 -16.6155540943 0 -0 0
-31.8127043247 -16.6155540943 0 -0 0
-28.5706403255 -16.6155540943 0 -0 0
-25.3285763264 -16.6155540943 -2.310712401 -1.4717261498 1
-22.0865123272 -16.6155540943 -2.3428947538 -2.347345813 1
-18.844448328 -16.6155540943 -1.2094075919 -4.3994884014 1
-15.6023843288 -16.6155540943 1.5086214954 -5.7641765623 1
-12.3603203297 -16.6155540943 2.5442187177 -5.8037464989 1
-9.1182563305 -16.6155540943 2.296117341 -4.7240257719 1
-5.8761923313 -16.6155540943 0.5047826256 -3.6995979412 1
-2.6341283321 -16.6155540943 -0.3015456596 -2.9403368752 1
0.607935667 -16.6155540943 1.4935744301 -2.6657184597 1
3.8499996662 -16.6155540943 4.4561684133 -3.1808224008 1
7.0920636654 -16.6155540943 5.296563369 -2.7327263543 1
10.3341276646 -16.6155540943 3.2524056033 -0.9797501893 1
13.5761916637 -16.6155540943 1.2204116709 0.0320524168 1
16.8182556629 -16.6155540943 0.8578917417 -1.1978861376 1
20.0603196621 -16.6155540943 1.1972913143 -4.0310403943 1
23.3023836613 -16.6155540943 0.8251565354 -7.2933143265 1
26.5444476604 -16.6155540943 1.1960481488 -10.143097365 1
29.7865116596 -16.6155540943 1.7625695014 -12.8581001004 1
33.0285756588 -16.6155540943 0 -0 0
36.270639658 -16.6155540943 0 -0 0
39.5127036572 -16.6155540943 0 -0 0
42.7547676563 -16.6155540943 0 -0 0
-35.0547683239 -19.8576180935 0 -0 0
-31.8127043247 -19.8576180935 0 -0 0
-28.5706403255 -19.8576180935 0 -0 0
-25.3285763264 -19.8576180935 0 -0 0
-22.0865123272 -19.8576180935 -5.0879700311 -6.3453309439 1
-18.844448328 -19.8576180935 -4.5880968862 -8.198219825 1
-15.6023843288 -19.8576180935 -2.7245564421 -9.1741411794 1
-12.3603203297 -19.8576180935 -1.8259421806 -9.3246900352 1
-9.1182563305 -19.8576180935 -2.5159988841 -7.8246291634 1
-5.8761923313 -19.8576180935 -4.345367941 -5.5051295323 1
-2.6341283321 -19.8576180935 -5.1347164949 -2.9479959037 1
0.607935667 -19.8576180935 -3.0889013765 -2.5316407727 1
3.8499996662 -19.8576180935 0.0331946939 -4.060206963 1
7.0920636654 -19.8576180935 0.762228313 -4.8724978794 1
10.3341276646 -19.8576180935 -1.724537349 -3.2122456745 1
13.5761916637 -19.8576180935 -3.5195219994 -0.6437107641 1
16.8182556629 -19.8576180935 -2.3835163499 -0.553054494 1
20.0603196621 -19.8576180935 0.5347158218 -3.5438511756 1
23.3023836613 -19.8576180935 1.9313664472 -8.2402155534 1
26.5444476604 -19.8576180935 2.074931263 -11.6685599066 1
29.7865116596 -19.8576180935 2.3586343202 -13.4623293965 1
33.0285756588 -19.8576180935 0 -0 0
36.270639658 -19.8576180935 0 -0 0
39.5127036572 -19.8576180935 0 -0 0
42.7547676563 -19.8576180935 0 -0 0
-35.0547683239 -23.0996820927 0 -0 0
-31.8127043247 -23.0996820927 0 -0 0
-28.5706403255 -23.0996820927 0 -0 0
-25.3285763264 -23.0996820927 0 -0 0
-22.0865123272 -23.0996820927 -8.6797458433 -9.352984901 1
-18.844448328 -23.0996820927 -9.2170366912 -11.1272152025 1
-15.6023843288 -23.0996820927 -7.314081206 -11.6245127929 1
-12.3603203297 -23.0996820927 -5.0948228779 -10.6685140917 1
-9.1182563305 -23.0996820927 -5.9698507373 -7.9466959502 1
-5.8761923313 -23.0996820927 -8.593255525 -4.3589528583 1
-2.6341283321 -23.0996820927 -9.7517441341 -1.1558237557 1
0.607935667 -23.0996820927 -7.4167295805 -0.6963907407 1
3.8499996662 -23.0996820927 -4.3982537657 -2.5617928759 1
7.0920636654 -23.0996820927 -3.238260284 -4.2639505289 1
10.3341276646 -23.0996820927 -5.1099555434 -3.9632704013 1
13.5761916637 -23.0996820927 -6.5295697426 -2.1664347032 1
16.8182556629 -23.0996820927 -5.5005515069 -1.8360401354 1
20.0603196621 -23.0996820927 -1.8545376284 -4.5277066266 1
23.3023836613 -23.0996820927 0.6852922298 -9.1628751669 1
26.5444476604 -23.0996820927 1.4257248757 -12.4239950816 1
29.7865116596 -23.0996820927 0 -0 0
33.0285756588 -23.0996820927 0 -0 0
36.270639658 -23.0996820927 0 -0 0
39.5127036572 -23.0996820927 0 -0 0
42.7547676563 -23.0996820927 0 -0 0
-35.0547683239 -26.3417460918 0 -0 0
-31.8127043247 -26.3417460918 0 -0 0
-28.5706403255 -26.3417460918 0 -0 0
-25.3285763264 -26.3417460918 0 -0 0
-22.0865123272 -26.3417460918 0 -0 0
-18.844448328 -26.3417460918 -12.3296881217 -12.4449606381 1
-15.6023843288 -26.3417460918 -8.8362984886 -11.3468372275 1
-12.3603203297 -26.3417460918 -5.3399999586 -8.8237009175 1
-9.1182563305 -26.3417460918 -5.9865963702 -5.1993903877 1
-5.8761923313 -26.3417460918 -9.4991399154 -1.6016030865 1
-2.6341283321 -26.3417460918 -11.2275513149 0.9902904118 1
0.607935667 -26.3417460918 -9.3980833724 0.8153870167 1
3.8499996662 -26.3417460918 -7.00127846 -0.7467173912 1
7.0920636654 -26.3417460918 -6.5325565403 -2.5305113634 1
10.3341276646 -26.3417460918 -7.9780204893 -3.4435993047 1
13.5761916637 -26.3417460918 -9.0322864049 -3.5106458477 1
16.8182556629 -26.3417460918 -7.8531190829 -3.8968292494 1
20.0603196621 -26.3417460918 -4.6951768448 -5.3895816459 1
23.3023836613 -26.3417460918 -1.7970395081 -8.2371484395 1
26.5444476604 -26.3417460918 0 -0 0
29.7865116596 -26.3417460918 0 -0 0
33.0285756588 -26.3417460918 0 -0 0
36.270639658 -26.3417460918 0 -0 0
39.5127036572 -26.3417460918 0 -0 0
42.7547676563 -26.3417460918 0 -0 0
-35.0547683239 -29.583810091 0 -0 0
-31.8127043247 -29.583810091 0 -0 0
-28.5706403255 -29.583810091 0 -0 0
-25.3285763264 -29.583810091 0 -0 0
-22.0865123272 -29.583810091 0 -0 0
-18.844448328 -29.583810091 0 -0 0
-15.6023843288 -29.583810091 -7.3658761189 -8.9055600688 1
-12.3603203297 -29.583810091 -3.4030954655 -4.6148234719 1
-9.1182563305 -29.583810091 -3.5221796817 -0.9258924929 1
-5.8761923313 -29.583810091 -6.8430923153 1.1923335985 1
-2.6341283321 -29.583810091 -9.057717061 1.3416775599 1
0.607935667 -29.583810091 -8.8151747151 0.2684196666 1
3.8499996662 -29.583810091 -7.9263385022 -1.1324564871 1
7.0920636654 -29.583810091 -8.7395766067 -2.5033329234 1
10.3341276646 -29.583810091 -10.0223023526 -3.8117985126 1
13.5761916637 -29.583810091 -10.1924067018 -5.2149632828 1
16.8182556629 -29.583810091 -8.8191838841 -6.2392428606 1
20.0603196621 -29.583810091 -6.5168652844 -6.9376969888 1
23.3023836613 -29.583810091 0 -0 0
26.5444476604 -29.583810091 0 -0 0
29.7865116596 -29.583810091 0 -0 0
33.0285756588 -29.583810091 0 -0 0
36.270639658 -29.583810091 0 -0 0
39.5127036572 -29.583810091 0 -0 0
42.7547676563 -29.583810091 0 -0 0
-35.0547683239 -32.8258740902 0 -0 0
-31.8127043247 -32.8258740902 0 -0 0
-28.5706403255 -32.8258740902 0 -0 0
-25.3285763264 -32.8258740902 0 -0 0
-22.0865123272 -32.8258740902 0 -0 0
-18.844448328 -32.8258740902 0 -0 0
-15.6023843288 -32.8258740902 0 -0 0
-12.3603203297 -32.8258740902 0 -0 0
-9.1182563305 -32.8258740902 -1.5462753161 0.3479822757 1
-5.8761923313 -32.8258740902 -4.0085470176 0.5114854456 1
-2.6341283321 -32.8258740902 -6.0326900382 -0.3152094778 1
0.607935667 -32.8258740902 -6.6553558353 -1.4024456983 1
3.8499996662 -32.8258740902 -7.1379108676 -2.3579354783 1
7.0920636654 -32.8258740902 -9.6078687723 -3.3870062517 1
10.3341276646 -32.8258740902 -11.684095361 -4.740709507 1
13.5761916637 -32.8258740902 -11.6520848126 -6.3365372221 1
16.8182556629 -32.8258740902 -9.4664693245 -7.7228008599 1
20.0603196621 -32.8258740902 0 -0 0
23.3023836613 -32.8258740902 0 -0 0
26.5444476604 -32.8258740902 0 -0 0
29.7865116596 -32.8258740902 0 -0 0
33.0285756588 -32.8258740902 0 -0 0
36.270639658 -32.8258740902 0 -0 0
39.5127036572 -32.8258740902 0 -0 0
42.7547676563 -32.8258740902 0 -0 0
-35.0547683239 -36.0679380894 0 -0 0
-31.8127043247 -36.0679380894 0 -0 0
-28.5706403255 -36.0679380894 0 -0 0
-25.3285763264 -36.0679380894 0 -0 0
-22.0865123272 -36.0679380894 0 -0 0
-18.844448328 -36.0679380894 0 -0 0
-15.6023843288 -36.0679380894 0 -0 0
-12.3603203297 -36.0679380894 0 -0 0
-9.1182563305 -36.0679380894 0 -0 0
-5.8761923313 -36.0679380894 0 -0 0
-2.6341283321 -36.0679380894 0 -0 0
0.607935667 -36.0679380894 0 -0 0
3.8499996662 -36.0679380894 0 -0 0
7.0920636654 -36.0679380894 0 -0 0
10.3341276646 -36.0679380894 0 -0 0
13.5761916637 -36.0679380894 0 -0 0
16.8182556629 -36.0679380894 0 -0 0
20.0603196621 -36.0679380894 0 -0 0
23.3023836613 -36.0679380894 0 -0 0
26.5444476604 -36.0679380894 0 -0 0
29.7865116596 -36.0679380894 0 -0 0
33.0285756588 -36.0679380894 0 -0 0
36.270639658 -36.0679380894 0 -0 0
39.5127036572 -36.0679380894 0 -0 0
42.7547676563 -36.0679380894 0 -0 0
-35.0547683239 -39.3100020885 0 -0 0
-31.8127043247 -39.3100020885 0 -0 0
-28.5706403255 -39.3100020885 0 -0 0
-25.3285763264 -39.3100020885 0 -0 0
-22.0865123272 -39.3100020885 0 -0 0
-18.844448328 -39.3100020885 0 -0 0
-15.6023843288 -39.3100020885 0 -0 0
-12.3603203297 -39.3100020885 0 -0 0
-9.1182563305 -39.3100020885 0 -0 0
-5.8761923313 -39.3100020885 0 -0 0
-2.6341283321 -39.3100020885 0 -0 0
0.607935667 -39.3100020885 0 -0 0
3.8499996662 -39.3100020885 0 -0 0
7.0920636654 -39.3100020885 0 -0 0
10.3341276646 -39.3100020885 0 -0 0
13.5761916637 -39.3100020885 0 -0 0
16.8182556629 -39.3100020885 0 -0 0
20.0603196621 -39.3100020885 0 -0 0
23.3023836613 -39.3100020885 0 -0 0
26.5444476604 -39.3100020885 0 -0 0
29.7865116596 -39.3100020885 0 -0 0
33.0285756588 -39.3100020885 0 -0 0
36.270639658 -39.3100020885 0 -0 0
39.5127036572 -39.3100020885 0 -0 0
42.7547676563 -39.3100020885 0 -0 0
-35.0547683239 -42.5520660877 0 -0 0
-31.8127043247 -42.5520660877 0 -0 0
-28.5706403255 -42.5520660877 0 -0 0
-25.3285763264 -42.5520660877 0 -0 0
-22.0865123272 -42.5520660877 0 -0 0
-18.844448328 -42.5520660877 0 -0 0
-15.6023843288 -42.5520660877 0 -0 0
-12.3603203297 -42.5520660877 0 -0 0
-9.1182563305 -42.5520660877 0 -0 0
-5.8761923313 -42.5520660877 0 -0 0
-2.6341283321 -42.5520660877 0 -0 0
0.607935667 -42.5520660877 0 -0 0
3.8499996662 -42.5520660877 0 -0 0
7.0920636654 -42.5520660877 0 -0 0
10.3341276646 -42.5520660877 0 -0 0
13.5761916637 -42.5520660877 0 -0 0
16.8182556629 -42.5520660877 0 -0 0
20.0603196621 -42.5520660877 0 -0 0
23.3023836613 -42.5520660877 0 -0 0
26.5444476604 -42.5520660877 0 -0 0
29.7865116596 -42.5520660877 0 -0 0
33.0285756588 -42.5520660877 0 -0 0
36.270639658 -42.5520660877 0 -0 0
39.5127036572 -42.5520660877 0 -0 0
42.7547676563 -42.5520660877 0 -0 0
