TITLE = "B00080"
VARIABLES = "x", "y", "Vx", "Vy", "isValid"
ZONE T="Frame 0", I=25, J=25, F=POINT
-35.0547683239 35.2574698925 0 -0 0
-31.8127043247 35.2574698925 0 -0 0
-28.5706403255 35.2574698925 0 -0 0
-25.3285763264 35.2574698925 0 -0 0
-22.0865123272 35.2574698925 0 -0 0
-18.844448328 35.2574698925 0 -0 0
-15.6023843288 35.2574698925 0 -0 0
-12.3603203297 35.2574698925 0 -0 0
-9.1182563305 35.2574698925 0 -0 0
-5.8761923313 35.2574698925 0 -0 0
-2.6341283321 35.2574698925 0 -0 0
0.607935667 35.2574698925 0 -0 0
3.8499996662 35.2574698925 0 -0 0
7.0920636654 35.2574698925 0 -0 0
10.3341276646 35.2574698925 0 -0 0
13.5761916637 35.2574698925 0 -0 0
16.8182556629 35.2574698925 0 -0 0
20.0603196621 35.2574698925 0 -0 0
23.3023836613 35.2574698925 0 -0 0
26.5444476604 35.2574698925 0 -0 0
29.7865116596 35.2574698925 0 -0 0
33.0285756588 35.2574698925 0 -0 0
36.270639658 35.2574698925 0 -0 0
39.5127036572 35.2574698925 0 -0 0
42.7547676563 35.2574698925 0 -0 0
-35.0547683239 32.0154058933 0 -0 0
-31.8127043247 32.0154058933 0 -0 0
-28.5706403255 32.0154058933 0 -0 0
-25.3285763264 32.0154058933 0 -0 0
-22.0865123272 32.0154058933 0 -0 0
-18.844448328 32.0154058933 0 -0 0
-15.6023843288 32.0154058933 0 -0 0
-12.3603203297 32.0154058933 0 -0 0
-9.1182563305 32.0154058933 0 -0 0
-5.8761923313 32.0154058933 0 -0 0
-2.6341283321 32.0154058933 0 -0 0
0.607935667 32.0154058933 0 -0 0
3.8499996662 32.0154058933 0 -0 0
7.0920636654 32.0154058933 0 -0 0
10.3341276646 32.0154058933 0 -0 0
13.5761916637 32.0154058933 0 -0 0
16.8182556629 32.0154058933 0 -0 0
20.0603196621 32.0154058933 0 -0 0
23.3023836613 32.0154058933 0 -0 0
26.5444476604 32.0154058933 0 -0 0
29.7865116596 32.0154058933 0 -0 0
33.0285756588 32.0154058933 0 -0 0
36.270639658 32.0154058933 0 -0 0
39.5127036572 32.0154058933 0 -0 0
42.7547676563 32.0154058933 0 -0 0
-35.0547683239 28.7733418941 0 -0 0
-31.8127043247 28.7733418941 0 -0 0
-28.5706403255 28.7733418941 0 -0 0
-25.3285763264 28.7733418941 0 -0 0
-22.0865123272 28.7733418941 0 -0 0
-18.844448328 28.7733418941 0 -0 0
-15.6023843288 28.7733418941 0 -0 0
-12.3603203297 28.7733418941 0 -0 0
-9.1182563305 28.7733418941 0 -0 0
-5.8761923313 28.7733418941 0 -0 0
-2.6341283321 28.7733418941 0 -0 0
0.607935667 28.7733418941 0 -0 0
3.8499996662 28.7733418941 0 -0 0
7.0920636654 28.7733418941 0 -0 0
10.3341276646 28.7733418941 0 -0 0
13.5761916637 28.7733418941 0 -0 0
16.8182556629 28.7733418941 0 -0 0
20.0603196621 28.7733418941 0 -0 0
23.3023836613 28.7733418941 0 -0 0
26.5444476604 28.7733418941 0 -0 0
29.7865116596 28.7733418941 0 -0 0
33.0285756588 28.7733418941 0 -0 0
36.270639658 28.7733418941 0 -0 0
39.5127036572 28.7733418941 0 -0 0
42.7547676563 28.7733418941 0 -0 0
-35.0547683239 25.531277895 0 -0 0
-31.8127043247 25.531277895 0 -0 0
-28.5706403255 25.531277895 0 -0 0
-25.3285763264 25.531277895 0 -0 0
-22.0865123272 25.531277895 0 -0 0
-18.844448328 25.531277895 0 -0 0
-15.6023843288 25.531277895 0 -0 0
-12.3603203297 25.531277895 0 -0 0
-9.1182563305 25.531277895 4.5094425338 0.270417231 1
-5.8761923313 25.531277895 3.7632503684 0.7656875725 1
-2.6341283321 25.531277895 2.1944789582 0.9498172195 1
0.607935667 25.531277895 1.3281747704 1.1104714277 1
3.8499996662 25.531277895 1.669360247 0.7773591669 1
7.0920636654 25.531277895 2.2009878945 0.5469308718 1
10.3341276646 25.531277895 3.175859401 -0.1755117491 1
13.5761916637 25.531277895 4.3498831627 -0.5225004322 1
16.8182556629 25.531277895 6.0950830706 -0.8337582985 1
20.0603196621 25.531277895 0 -0 0
23.3023836613 25.531277895 0 -0 0
26.5444476604 25.531277895 0 -0 0
29.7865116596 25.531277895 0 -0 0
33.0285756588 25.531277895 0 -0 0
36.270639658 25.531277895 0 -0 0
39.5127036572 25.531277895 0 -0 0
42.7547676563 25.531277895 0 -0 0
-35.0547683239 22.2892138958 0 -0 0
-31.8127043247 22.2892138958 0 -0 0
-28.5706403255 22.2892138958 0 -0 0
-25.3285763264 22.2892138958 0 -0 0
-22.0865123272 22.2892138958 0 -0 0
-18.844448328 22.2892138958 0 -0 0
-15.6023843288 22.2892138958 4.3068943512 4.3864560356 1
-12.3603203297 22.2892138958 4.608648784 1.9891823602 1
-9.1182563305 22.2892138958 5.1843362267 -0.0987166344 1
-5.8761923313 22.2892138958 4.9685606247 -1.2975410717 1
-2.6341283321 22.2892138958 5.4542959987 -1.951663356 1
0.607935667 22.2892138958 6.6019841879 -1.7425496232 1
3.8499996662 22.2892138958 6.7028305801 -1.0794587934 1
7.0920636654 22.2892138958 5.2647684062 -0.7315865374 1
10.3341276646 22.2892138958 4.1217264809 -1.0613713359 1
13.5761916637 22.2892138958 4.5820635066 -0.9223787331 1
16.8182556629 22.2892138958 5.6662825465 -1.210479859 1
20.0603196621 22.2892138958 4.9337175702 -2.7144335771 1
23.3023836613 22.2892138958 0 -0 0
26.5444476604 22.2892138958 0 -0 0
29.7865116596 22.2892138958 0 -0 0
33.0285756588 22.2892138958 0 -0 0
36.270639658 22.2892138958 0 -0 0
39.5127036572 22.2892138958 0 -0 0
42.7547676563 22.2892138958 0 -0 0
-35.0547683239 19.0471498966 0 -0 0
-31.8127043247 19.0471498966 0 -0 0
-28.5706403255 19.0471498966 0 -0 0
-25.3285763264 19.0471498966 0 -0 0
-22.0865123272 19.0471498966 0 -0 0
-18.844448328 19.0471498966 5.7539927054 3.9930505135 1
-15.6023843288 19.0471498966 5.6167111252 3.4337364108 1
-12.3603203297 19.0471498966 5.5520722576 1.6109603807 1
-9.1182563305 19.0471498966 5.9346100269 -1.6441421572 1
-5.8761923313 19.0471498966 6.0341212372 -4.3050790835 1
-2.6341283321 19.0471498966 7.2655152473 -5.8163156876 1
0.607935667 19.0471498966 8.8491062105 -4.8274317157 1
3.8499996662 19.0471498966 8.3598861385 -2.7015971709 1
7.0920636654 19.0471498966 5.9595273837 -1.4287717596 1
10.3341276646 19.0471498966 4.1582815393 -1.8476302813 1
13.5761916637 19.0471498966 4.2706282501 -2.2775445138 1
16.8182556629 19.0471498966 4.6052462139 -3.3948829795 1
20.0603196621 19.0471498966 2.9747282263 -5.0252515065 1
23.3023836613 19.0471498966 0.6784551594 -6.2980228703 1
26.5444476604 19.0471498966 0 -0 0
29.7865116596 19.0471498966 0 -0 0
33.0285756588 19.0471498966 0 -0 0
36.270639658 19.0471498966 0 -0 0
39.5127036572 19.0471498966 0 -0 0
42.7547676563 19.0471498966 0 -0 0
-35.0547683239 15.8050858974 0 -0 0
-31.8127043247 15.8050858974 0 -0 0
-28.5706403255 15.8050858974 0 -0 0
-25.3285763264 15.8050858974 0 -0 0
-22.0865123272 15.8050858974 5.7552125459 2.7476207886 1
-18.844448328 15.8050858974 5.8936541824 2.5982929811 1
-15.6023843288 15.8050858974 6.4873831876 1.9302563621 1
-12.3603203297 15.8050858974 6.6519632292 0.4634417312 1
-9.1182563305 15.8050858974 6.7497672667 -2.1705099972 1
-5.8761923313 15.8050858974 6.6689510186 -4.5758347712 1
-2.6341283321 15.8050858974 7.0467567728 -5.8554061423 1
0.607935667 15.8050858974 7.5504766425 -5.0580703502 1
3.8499996662 15.8050858974 6.4639815733 -2.4194980228 1
7.0920636654 15.8050858974 4.5285442102 -0.7833797141 1
10.3341276646 15.8050858974 3.2384471853 -1.754644463 1
13.5761916637 15.8050858974 3.3293096053 -3.9069744579 1
16.8182556629 15.8050858974 3.5708537351 -6.6308956167 1
20.0603196621 15.8050858974 2.5335408857 -7.7079212207 1
23.3023836613 15.8050858974 1.6883172938 -7.2390000201 1
26.5444476604 15.8050858974 2.3034878652 -5.631974833 1
29.7865116596 15.8050858974 0 -0 0
33.0285756588 15.8050858974 0 -0 0
36.270639658 15.8050858974 0 -0 0
39.5127036572 15.8050858974 0 -0 0
42.7547676563 15.8050858974 0 -0 0
-35.0547683239 12.5630218983 0 -0 0
-31.8127043247 12.5630218983 0 -0 0
-28.5706403255 12.5630218983 0 -0 0
-25.3285763264 12.5630218983 0 -0 0
-22.0865123272 12.5630218983 4.5450250411 3.2438144837 1
-18.844448328 12.5630218983 4.9526740131 2.2801168978 1
-15.6023843288 12.5630218983 5.6697246709 1.2917093884 1
-12.3603203297 12.5630218983 6.6082410037 0.4511772761 1
-9.1182563305 12.5630218983 6.8899752564 -0.7006291582 1
-5.8761923313 12.5630218983 6.7696754268 -1.722733706 1
-2.6341283321 12.5630218983 6.0157457283 -2.3670951523 1
0.607935667 12.5630218983 5.4012274998 -2.1665227189 1
3.8499996662 12.5630218983 4.2625335211 -1.1761119837 1
7.0920636654 12.5630218983 3.2445901694 -0.8261656969 1
10.3341276646 12.5630218983 2.6754107572 -2.7462617534 1
13.5761916637 12.5630218983 2.5643953031 -6.0012072821 1
16.8182556629 12.5630218983 3.2323277525 -9.2103680282 1
20.0603196621 12.5630218983 3.2245228866 -9.9463624473 1
23.3023836613 12.5630218983 3.7032801084 -8.5914734708 1
26.5444476604 12.5630218983 4.8167191606 -6.9415841737 1
29.7865116596 12.5630218983 7.0180536831 -6.6595002737 1
33.0285756588 12.5630218983 0 -0 0
36.270639658 12.5630218983 0 -0 0
39.5127036572 12.5630218983 0 -0 0
42.7547676563 12.5630218983 0 -0 0
-35.0547683239 9.3209578991 0 -0 0
-31.8127043247 9.3209578991 0 -0 0
-28.5706403255 9.3209578991 0 -0 0
-25.3285763264 9.3209578991 1.9960703831 4.3436523138 1
-22.0865123272 9.3209578991 2.3941381719 4.0759133159 1
-18.844448328 9.3209578991 3.1066624361 3.5632098036 1
-15.6023843288 9.3209578991 4.5882472527 2.828786986 1
-12.3603203297 9.3209578991 6.2180122001 2.3464396889 1
-9.1182563305 9.3209578991 6.8425554647 2.2314928155 1
-5.8761923313 9.3209578991 6.5684138136 2.0039910433 1
-2.6341283321 9.3209578991 5.4956455739 1.5614753144 1
0.607935667 9.3209578991 4.4697125686 0.7942442209 1
3.8499996662 9.3209578991 3.5062870313 -0.1235654224 1
7.0920636654 9.3209578991 3.0987697054 -2.0394059735 1
10.3341276646 9.3209578991 3.0338147058 -4.9345865556 1
13.5761916637 9.3209578991 2.7135395306 -7.9006801829 1
16.8182556629 9.3209578991 3.3564966506 -10.2516052013 1
20.0603196621 9.3209578991 3.6355466502 -10.9718920598 1
23.3023836613 9.3209578991 4.2910409532 -10.70071909 1
26.5444476604 9.3209578991 5.4772616106 -10.4287767752 1
29.7865116596 9.3209578991 7.2258390276 -11.241279956 1
33.0285756588 9.3209578991 0 -0 0
36.270639658 9.3209578991 0 -0 0
39.5127036572 9.3209578991 0 -0 0
42.7547676563 9.3209578991 0 -0 0
-35.0547683239 6.0788938999 0 -0 0
-31.8127043247 6.0788938999 0 -0 0
-28.5706403255 6.0788938999 0 -0 0
-25.3285763264 6.0788938999 -0.1204241631 4.0190527434 1
-22.0865123272 6.0788938999 0.5197717938 3.7598251528 1
-18.844448328 6.0788938999 1.4338668585 4.1678793293 1
-15.6023843288 6.0788938999 3.6065518857 4.1913066086 1
-12.3603203297 6.0788938999 5.763622803 3.9640388404 1
-9.1182563305 6.0788938999 6.6459811795 3.5467863415 1
-5.8761923313 6.0788938999 6.1886738271 2.8091750297 1
-2.6341283321 6.0788938999 5.4693235888 1.9664806444 1
0.607935667 6.0788938999 4.9072621273 0.8712554874 1
3.8499996662 6.0788938999 4.2110622887 -1.0642484536 1
7.0920636654 6.0788938999 3.9217318111 -4.3331163939 1
10.3341276646 6.0788938999 3.9504883443 -7.3007752819 1
13.5761916637 6.0788938999 3.8997731715 -9.0965333535 1
16.8182556629 6.0788938999 4.1021963506 -10.0824948411 1
20.0603196621 6.0788938999 3.9966774256 -11.3018782528 1
23.3023836613 6.0788938999 3.8858531 -13.0082141616 1
26.5444476604 6.0788938999 4.4511269089 -14.600122988 1
29.7865116596 6.0788938999 5.7934617937 -15.6226935814 1
33.0285756588 6.0788938999 7.5842408627 -16.2254965095 1
36.270639658 6.0788938999 0 -0 0
39.5127036572 6.0788938999 0 -0 0
42.7547676563 6.0788938999 0 -0 0
-35.0547683239 2.8368299007 0 -0 0
-31.8127043247 2.8368299007 0 -0 0
-28.5706403255 2.8368299007 -2.0235311376 5.4029008553 1
-25.3285763264 2.8368299007 -1.4129559532 3.7974149621 1
-22.0865123272 2.8368299007 -0.3550178721 2.8438897594 1
-18.844448328 2.8368299007 0.9856290508 3.3349006418 1
-15.6023843288 2.8368299007 3.2208684979 3.7246550965 1
-12.3603203297 2.8368299007 5.0277443291 3.3844953126 1
-9.1182563305 2.8368299007 5.5571158755 2.745117398 1
-5.8761923313 2.8368299007 5.1235881674 1.8803870763 1
-2.6341283321 2.8368299007 5.0552961188 0.637271576 1
0.607935667 2.8368299007 5.1468889335 -0.8043830132 1
3.8499996662 2.8368299007 4.9835906303 -2.6732570139 1
7.0920636654 2.8368299007 5.0760204247 -5.6037409592 1
10.3341276646 2.8368299007 5.4690596926 -8.3715017984 1
13.5761916637 2.8368299007 5.6853857327 -9.8408691872 1
16.8182556629 2.8368299007 5.0424714882 -10.5749354129 1
20.0603196621 2.8368299007 4.0897192538 -11.7667933037 1
23.3023836613 2.8368299007 3.2266850841 -13.7330844804 1
26.5444476604 2.8368299007 3.4448019346 -15.8049015266 1
29.7865116596 2.8368299007 4.4569628193 -16.9535758543 1
33.0285756588 2.8368299007 5.9223355323 -17.2098377831 1
36.270639658 2.8368299007 0 -0 0
39.5127036572 2.8368299007 0 -0 0
42.7547676563 2.8368299007 0 -0 0
-35.0547683239 -0.4052340984 0 -0 0
-31.8127043247 -0.4052340984 0 -0 0
-28.5706403255 -0.4052340984 -3.1132106247 6.350521909 1
-25.3285763264 -0.4052340984 -2.3149755022 4.1074310971 1
-22.0865123272 -0.4052340984 -0.3386889174 2.3992162111 1
-18.844448328 -0.4052340984 2.1460325681 2.0139537286 1
-15.6023843288 -0.4052340984 3.8408234711 1.7621336499 1
-12.3603203297 -0.4052340984 4.2419940029 1.2647327958 1
-9.1182563305 -0.4052340984 3.7229630207 1.2622829242 1
-5.8761923313 -0.4052340984 3.4864132925 1.3977885645 1
-2.6341283321 -0.4052340984 4.0466884726 0.326435219 1
0.607935667 -0.4052340984 4.4315602438 -1.5310482941 1
3.8499996662 -0.4052340984 5.033852892 -3.6081621357 1
7.0920636654 -0.4052340984 5.8255593011 -5.9195582815 1
10.3341276646 -0.4052340984 6.7912563385 -8.4420393801 1
13.5761916637 -0.4052340984 6.8743244606 -10.0476768477 1
16.8182556629 -0.4052340984 5.8084314113 -11.0408710235 1
20.0603196621 -0.4052340984 4.1653777504 -12.0903421204 1
23.3023836613 -0.4052340984 3.0140200755 -13.5133259781 1
26.5444476604 -0.4052340984 2.9188226923 -15.1861657901 1
29.7865116596 -0.4052340984 3.4805345065 -15.7636395142 1
33.0285756588 -0.4052340984 4.5059958803 -15.8566082728 1
36.270639658 -0.4052340984 0 -0 0
39.5127036572 -0.4052340984 0 -0 0
42.7547676563 -0.4052340984 0 -0 0
-35.0547683239 -3.6472980976 0 -0 0
-31.8127043247 -3.6472980976 0 -0 0
-28.5706403255 -3.6472980976 -3.9518540223 7.1582037002 1
-25.3285763264 -3.6472980976 -3.1531416824 5.1328849224 1
-22.0865123272 -3.6472980976 -0.638089609 3.2851815715 1
-18.844448328 -3.6472980976 2.9604600171 1.6288953581 1
-15.6023843288 -3.6472980976 4.16249633 0.3980700534 1
-12.3603203297 -3.6472980976 3.2186507432 -0.4135638023 1
-9.1182563305 -3.6472980976 1.191648646 0.2409213204 1
-5.8761923313 -3.6472980976 0.6787284157 1.4509881056 1
-2.6341283321 -3.6472980976 1.7697816577 0.9619396869 1
0.607935667 -3.6472980976 2.7306885563 -0.878682399 1
3.8499996662 -3.6472980976 3.9322550495 -3.2409677865 1
7.0920636654 -3.6472980976 4.950591226 -5.5396769867 1
10.3341276646 -3.6472980976 6.1924100417 -7.9822476595 1
13.5761916637 -3.6472980976 6.1640396907 -9.957454542 1
16.8182556629 -3.6472980976 5.1284234462 -11.2977259639 1
20.0603196621 -3.6472980976 3.4314573621 -12.7001863063 1
23.3023836613 -3.6472980976 2.745540417 -13.9361456602 1
26.5444476604 -3.6472980976 2.7344869707 -14.6900904558 1
29.7865116596 -3.6472980976 3.1230816711 -14.1364712571 1
33.0285756588 -3.6472980976 3.5113400095 -13.4850401705 1
36.270639658 -3.6472980976 0 -0 0
39.5127036572 -3.6472980976 0 -0 0
42.7547676563 -3.6472980976 0 -0 0
-35.0547683239 -6.8893620968 0 -0 0
-31.8127043247 -6.8893620968 0 -0 0
-28.5706403255 -6.8893620968 -3.1573172208 7.7331030776 1
-25.3285763264 -6.8893620968 -3.0808410688 6.4880873134 1
-22.0865123272 -6.8893620968 -1.2034922711 4.5339848802 1
-18.844448328 -6.8893620968 1.9695338691 2.465590634 1
-15.6023843288 -6.8893620968 3.1478854982 0.9878942102 1
-12.3603203297 -6.8893620968 1.7245823381 0.2968391396 1
-9.1182563305 -6.8893620968 -1.3460211282 0.7247307466 1
-5.8761923313 -6.8893620968 -2.6149238765 1.5387135125 1
-2.6341283321 -6.8893620968 -1.2498123946 1.2018325029 1
0.607935667 -6.8893620968 0.7943515608 -0.3815006406 1
3.8499996662 -6.8893620968 2.2969739469 -2.6470126276 1
7.0920636654 -6.8893620968 3.0481574944 -4.693280959 1
10.3341276646 -6.8893620968 4.1061104083 -6.6662758237 1
13.5761916637 -6.8893620968 4.2555016234 -8.4665768955 1
16.8182556629 -6.8893620968 3.4468974033 -10.1722455153 1
20.0603196621 -6.8893620968 2.2079666506 -12.2046134013 1
23.3023836613 -6.8893620968 2.2485174417 -13.9093840494 1
26.5444476604 -6.8893620968 2.6214122809 -14.251293278 1
29.7865116596 -6.8893620968 2.5886018914 -12.9347326577 1
33.0285756588 -6.8893620968 2.3796429033 -11.6399153934 1
36.270639658 -6.8893620968 0 -0 0
39.5127036572 -6.8893620968 0 -0 0
42.7547676563 -6.8893620968 0 -0 0
-35.0547683239 -10.131426096 0 -0 0
-31.8127043247 -10.131426096 0 -0 0
-28.5706403255 -10.131426096 -1.4537718482 7.7168967109 1
-25.3285763264 -10.131426096 -2.5561031048 6.5890176452 1
-22.0865123272 -10.131426096 -2.4179800158 5.141364022 1
-18.844448328 -10.131426096 -1.0082147458 4.3274091102 1
-15.6023843288 -10.131426096 0.122345846 4.2841144328 1
-12.3603203297 -10.131426096 -0.925000409 4.1049832636 1
-9.1182563305 -10.131426096 -3.8979802475 3.1835857624 1
-5.8761923313 -10.131426096 -6.0632554983 2.0028401962 1
-2.6341283321 -10.131426096 -5.3451359704 1.2702918266 1
0.607935667 -10.131426096 -2.4417080281 0.653553277 1
3.8499996662 -10.131426096 0.0714244147 -0.5316454243 1
7.0920636654 -10.131426096 1.4306096728 -2.2110736208 1
10.3341276646 -10.131426096 2.4477565048 -4.0968994044 1
13.5761916637 -10.131426096 2.5133191601 -6.1137279107 1
16.8182556629 -10.131426096 1.7968227146 -8.2014511947 1
20.0603196621 -10.131426096 0.8985112242 -10.435482275 1
23.3023836613 -10.131426096 1.1320657004 -12.3202748175 1
26.5444476604 -10.131426096 1.3846653145 -12.8280014407 1
29.7865116596 -10.131426096 0.9853778361 -12.000057011 1
33.0285756588 -10.131426096 0.5742166517 -10.8807868794 1
36.270639658 -10.131426096 0 -0 0
39.5127036572 -10.131426096 0 -0 0
42.7547676563 -10.131426096 0 -0 0
-35.0547683239 -13.3734900951 0 -0 0
-31.8127043247 -13.3734900951 0 -0 0
-28.5706403255 -13.3734900951 0 -0 0
-25.3285763264 -13.3734900951 -4.4934840604 5.6484299989 1
-22.0865123272 -13.3734900951 -5.7227454631 5.3835458507 1
-18.844448328 -13.3734900951 -5.4852660594 7.0187710942 1
-15.6023843288 -13.3734900951 -4.3042267049 8.9861275177 1
-12.3603203297 -13.3734900951 -4.2867210871 9.06565931 1
-9.1182563305 -13.3734900951 -5.8528040171 5.7529516137 1
-5.8761923313 -13.3734900951 -8.1256399161 2.1230905075 1
-2.6341283321 -13.3734900951 -8.5401097293 1.8156165625 1
0.607935667 -13.3734900951 -5.9156312403 2.7843862997 1
3.8499996662 -13.3734900951 -2.1575048061 3.0294281109 1
7.0920636654 -13.3734900951 0.5638545743 1.0209300739 1
10.3341276646 -13.3734900951 1.7581421445 -1.2531404608 1
13.5761916637 -13.3734900951 1.1652603849 -3.6724323337 1
16.8182556629 -13.3734900951 0.2189346758 -6.2010328651 1
20.0603196621 -13.3734900951 -0.5323582686 -8.0707482992 1
23.3023836613 -13.3734900951 -0.9251442837 -9.4319260972 1
26.5444476604 -13.3734900951 -1.1988995261 -10.210143908 1
29.7865116596 -13.3734900951 -1.4750425158 -10.7159924599 1
33.0285756588 -13.3734900951 -1.1810780784 -10.7003785009 1
36.270639658 -13.3734900951 0 -0 0
39.5127036572 -13.3734900951 0 -0 0
42.7547676563 -13.3734900951 0 -0 0
-35.0547683239 -16.6155540943 0 -0 0
-31.8127043247 -16.6155540943 0 -0 0
-28.5706403255 -16.6155540943 0 -0 0
-25.3285763264 -16.6155540943 -8.2782631048 3.8529364274 1
-22.0865123272 -16.6155540943 -9.4194299781 5.2505222387 1
-18.844448328 -16.6155540943 -9.2889613886 9.2520672508 1
-15.6023843288 -16.6155540943 -8.3880088981 13.133222455 1
-12.3603203297 -16.6155540943 -7.2990536159 12.7113134261 1
-9.1182563305 -16.6155540943 -6.3318166807 7.2128308171 1
-5.8761923313 -16.6155540943 -7.2952660713 2.4052711795 1
-2.6341283321 -16.6155540943 -8.2163737095 3.1079638007 1
0.607935667 -16.6155540943 -7.2795917242 5.078158769 1
3.8499996662 -16.6155540943 -4.0491233227 6.1214726905 1
7.0920636654 -16.6155540943 -1.0989869611 3.9733211024 1
10.3341276646 -16.6155540943 -0.3487139158 1.9286396205 1
13.5761916637 -16.6155540943 -1.5556244579 -0.8755432722 1
16.8182556629 -16.6155540943 -2.6817361135 -3.970877496 1
20.0603196621 -16.6155540943 -3.1714051714 -5.5613587467 1
23.3023836613 -16.6155540943 -3.6281886565 -6.4705409337 1
26.5444476604 -16.6155540943 -3.765325909 -7.7971694656 1
29.7865116596 -16.6155540943 -3.4508881539 -9.4621805584 1
33.0285756588 -16.6155540943 0 -0 0
36.270639658 -16.6155540943 0 -0 0
39.5127036572 -16.6155540943 0 -0 0
42.7547676563 -16.6155540943 0 -0 0
-35.0547683239 -19.8576180935 0 -0 0
-31.8127043247 -19.8576180935 0 -0 0
-28.5706403255 -19.8576180935 0 -0 0
-25.3285763264 -19.8576180935 0 -0 0
-22.0865123272 -19.8576180935 -10.3281459687 5.6817648594 1
-18.844448328 -19.8576180935 -10.4789617401 10.2524059482 1
-15.6023843288 -19.8576180935 -10.6806460703 13.95675855 1
-12.3603203297 -19.8576180935 -9.3843782826 12.5928077283 1
-9.1182563305 -19.8576180935 -6.636890348 6.5015411885 1
-5.8761923313 -19.8576180935 -6.3092635198 1.9688640136 1
-2.6341283321 -19.8576180935 -7.2035835803 3.1844511245 1
0.607935667 -19.8576180935 -7.9822071994 5.1479064738 1
3.8499996662 -19.8576180935 -6.7629614727 6.1198283212 1
7.0920636654 -19.8576180935 -5.2456996413 4.604400176 1
10.3341276646 -19.8576180935 -5.0045700761 3.5416225511 1
13.5761916637 -19.8576180935 -5.8961759913 1.0497639039 1
16.8182556629 -19.8576180935 -6.8063569983 -2.0988966007 1
20.0603196621 -19.8576180935 -6.4872823394 -3.5138301147 1
23.3023836613 -19.8576180935 -5.9518774134 -4.1870552832 1
26.5444476604 -19.8576180935 -5.0425973975 -5.3806671477 1
29.7865116596 -19.8576180935 -4.3583824923 -7.8107724994 1
33.0285756588 -19.8576180935 0 -0 0
36.270639658 -19.8576180935 0 -0 0
39.5127036572 -19.8576180935 0 -0 0
42.7547676563 -19.8576180935 0 -0 0
-35.0547683239 -23.0996820927 0 -0 0
-31.8127043247 -23.0996820927 0 -0 0
-28.5706403255 -23.0996820927 0 -0 0
-25.3285763264 -23.0996820927 0 -0 0
-22.0865123272 -23.0996820927 -8.3209212912 6.6295525843 1
-18.844448328 -23.0996820927 -9.8256429201 10.7857492229 1
-15.6023843288 -23.0996820927 -11.1315716033 13.9287481123 1
-12.3603203297 -23.0996820927 -10.5587525975 12.105056296 1
-9.1182563305 -23.0996820927 -7.4512251012 6.583364107 1
-5.8761923313 -23.0996820927 -6.5329176614 2.4253274416 1
-2.6341283321 -23.0996820927 -7.3084898676 2.5468981397 1
0.607935667 -23.0996820927 -9.6026125881 3.5299377468 1
3.8499996662 -23.0996820927 -10.9121911309 3.76226423 1
7.0920636654 -23.0996820927 -11.209618451 2.9399226125 1
10.3341276646 -23.0996820927 -10.4002711548 2.7052902079 1
13.5761916637 -23.0996820927 -9.3418885792 1.4839766401 1
16.8182556629 -23.0996820927 -9.1974890483 -0.8917455628 1
20.0603196621 -23.0996820927 -8.3966745971 -2.4834031745 1
23.3023836613 -23.0996820927 -6.9529631121 -3.6352739977 1
26.5444476604 -23.0996820927 -4.9205620126 -4.546670618 1
29.7865116596 -23.0996820927 0 -0 0
33.0285756588 -23.0996820927 0 -0 0
36.270639658 -23.0996820927 0 -0 0
39.5127036572 -23.0996820927 0 -0 0
42.7547676563 -23.0996820927 0 -0 0
-35.0547683239 -26.3417460918 0 -0 0
-31.8127043247 -26.3417460918 0 -0 0
-28.5706403255 -26.3417460918 0 -0 0
-25.3285763264 -26.3417460918 0 -0 0
-22.0865123272 -26.3417460918 0 -0 0
-18.844448328 -26.3417460918 -8.8558902148 12.4264359704 1
-15.6023843288 -26.3417460918 -10.6994835485 13.982117948 1
-12.3603203297 -26.3417460918 -10.6879542437 11.8286706215 1
-9.1182563305 -26.3417460918 -9.1585960628 7.0742273404 1
-5.8761923313 -26.3417460918 -8.8997138924 3.0531238155 1
-2.6341283321 -26.3417460918 -10.2956716393 2.0457227245 1
0.607935667 -26.3417460918 -13.0101320891 2.5558645716 1
3.8499996662 -26.3417460918 -15.2368411067 2.4021448852 1
7.0920636654 -26.3417460918 -15.813070835 1.4508572143 1
10.3341276646 -26.3417460918 -13.5608115929 0.9200168772 1
13.5761916637 -26.3417460918 -10.4293709946 0.2348964706 1
16.8182556629 -26.3417460918 -8.8137042638 -1.234237084 1
20.0603196621 -26.3417460918 -7.8348981676 -2.8557946785 1
23.3023836613 -26.3417460918 -6.4818099656 -4.276100322 1
26.5444476604 -26.3417460918 0 -0 0
29.7865116596 -26.3417460918 0 -0 0
33.0285756588 -26.3417460918 0 -0 0
36.270639658 -26.3417460918 0 -0 0
39.5127036572 -26.3417460918 0 -0 0
42.7547676563 -26.3417460918 0 -0 0
-35.0547683239 -29.583810091 0 -0 0
-31.8127043247 -29.583810091 0 -0 0
-28.5706403255 -29.583810091 0 -0 0
-25.3285763264 -29.583810091 0 -0 0
-22.0865123272 -29.583810091 0 -0 0
-18.844448328 -29.583810091 0 -0 0
-15.6023843288 -29.583810091 -9.7989888002 14.3326820057 1
-12.3603203297 -29.583810091 -10.0217377234 11.3289623363 1
-9.1182563305 -29.583810091 -10.1377191967 6.8356120357 1
-5.8761923313 -29.583810091 -11.0208825472 3.2330922664 1
-2.6341283321 -29.583810091 -13.1271655239 1.9821118141 1
0.607935667 -29.583810091 -15.3627443524 1.9955786726 1
3.8499996662 -29.583810091 -16.7731541904 1.3540965331 1
7.0920636654 -29.583810091 -16.0733063038 -0.067179529 1
10.3341276646 -29.583810091 -12.8036891731 -0.7849729043 1
13.5761916637 -29.583810091 -8.9764587717 -0.9709726968 1
16.8182556629 -29.583810091 -6.6794857306 -1.8119428496 1
20.0603196621 -29.583810091 -5.9489920677 -3.5883173831 1
23.3023836613 -29.583810091 0 -0 0
26.5444476604 -29.583810091 0 -0 0
29.7865116596 -29.583810091 0 -0 0
33.0285756588 -29.583810091 0 -0 0
36.270639658 -29.583810091 0 -0 0
39.5127036572 -29.583810091 0 -0 0
42.7547676563 -29.583810091 0 -0 0
-35.0547683239 -32.8258740902 0 -0 0
-31.8127043247 -32.8258740902 0 -0 0
-28.5706403255 -32.8258740902 0 -0 0
-25.3285763264 -32.8258740902 0 -0 0
-22.0865123272 -32.8258740902 0 -0 0
-18.844448328 -32.8258740902 0 -0 0
-15.6023843288 -32.8258740902 0 -0 0
-12.3603203297 -32.8258740902 0 -0 0
-9.1182563305 -32.8258740902 -10.3769323441 5.9274334996 1
-5.8761923313 -32.8258740902 -11.691263434 3.391558914 1
-2.6341283321 -32.8258740902 -13.4682631358 2.3836902678 1
0.607935667 -32.8258740902 -14.1608608215 1.7725773269 1
3.8499996662 -32.8258740902 -14.4430582512 0.482639236 1
7.0920636654 -32.8258740902 -13.1339531515 -0.8842359949 1
10.3341276646 -32.8258740902 -10.745488446 -1.3708466951 1
13.5761916637 -32.8258740902 -7.8280580023 -1.5190610962 1
16.8182556629 -32.8258740902 -5.8326096172 -2.159451418 1
20.0603196621 -32.8258740902 0 -0 0
23.3023836613 -32.8258740902 0 -0 0
26.5444476604 -32.8258740902 0 -0 0
29.7865116596 -32.8258740902 0 -0 0
33.0285756588 -32.8258740902 0 -0 0
36.270639658 -32.8258740902 0 -0 0
39.5127036572 -32.8258740902 0 -0 0
42.7547676563 -32.8258740902 0 -0 0
-35.0547683239 -36.0679380894 0 -0 0
-31.8127043247 -36.0679380894 0 -0 0
-28.5706403255 -36.0679380894 0 -0 0
-25.3285763264 -36.0679380894 0 -0 0
-22.0865123272 -36.0679380894 0 -0 0
-18.844448328 -36.0679380894 0 -0 0
-15.6023843288 -36.0679380894 0 -0 0
-12.3603203297 -36.0679380894 0 -0 0
-9.1182563305 -36.0679380894 0 -0 0
-5.8761923313 -36.0679380894 0 -0 0
-2.6341283321 -36.0679380894 0 -0 0
0.607935667 -36.0679380894 0 -0 0
3.8499996662 -36.0679380894 0 -0 0
7.0920636654 -36.0679380894 0 -0 0
10.3341276646 -36.0679380894 0 -0 0
13.5761916637 -36.0679380894 0 -0 0
16.8182556629 -36.0679380894 0 -0 0
20.0603196621 -36.0679380894 0 -0 0
23.3023836613 -36.0679380894 0 -0 0
26.5444476604 -36.0679380894 0 -0 0
29.7865116596 -36.0679380894 0 -0 0
33.0285756588 -36.0679380894 0 -0 0
36.270639658 -36.0679380894 0 -0 0
39.5127036572 -36.0679380894 0 -0 0
42.7547676563 -36.0679380894 0 -0 0
-35.0547683239 -39.3100020885 0 -0 0
-31.8127043247 -39.3100020885 0 -0 0
-28.5706403255 -39.3100020885 0 -0 0
-25.3285763264 -39.3100020885 0 -0 0
-22.0865123272 -39.3100020885 0 -0 0
-18.844448328 -39.3100020885 0 -0 0
-15.6023843288 -39.3100020885 0 -0 0
-12.3603203297 -39.3100020885 0 -0 0
-9.1182563305 -39.3100020885 0 -0 0
-5.8761923313 -39.3100020885 0 -0 0
-2.6341283321 -39.3100020885 0 -0 0
0.607935667 -39.3100020885 0 -0 0
3.8499996662 -39.3100020885 0 -0 0
7.0920636654 -39.3100020885 0 -0 0
10.3341276646 -39.3100020885 0 -0 0
13.5761916637 -39.3100020885 0 -0 0
16.8182556629 -39.3100020885 0 -0 0
20.0603196621 -39.3100020885 0 -0 0
23.3023836613 -39.3100020885 0 -0 0
26.5444476604 -39.3100020885 0 -0 0
29.7865116596 -39.3100020885 0 -0 0
33.0285756588 -39.3100020885 0 -0 0
36.270639658 -39.3100020885 0 -0 0
39.5127036572 -39.3100020885 0 -0 0
42.7547676563 -39.3100020885 0 -0 0
-35.0547683239 -42.5520660877 0 -0 0
-31.8127043247 -42.5520660877 0 -0 0
-28.5706403255 -42.5520660877 0 -0 0
-25.3285763264 -42.5520660877 0 -0 0
-22.0865123272 -42.5520660877 0 -0 0
-18.844448328 -42.5520660877 0 -0 0
-15.6023843288 -42.5520660877 0 -0 0
-12.3603203297 -42.5520660877 0 -0 0
-9.1182563305 -42.5520660877 0 -0 0
-5.8761923313 -42.5520660877 0 -0 0
-2.6341283321 -42.5520660877 0 -0 0
0.607935667 -42.5520660877 0 -0 0
3.8499996662 -42.5520660877 0 -0 0
7.0920636654 -42.5520660877 0 -0 0
10.3341276646 -42.5520660877 0 -0 0
13.5761916637 -42.5520660877 0 -0 0
16.8182556629 -42.5520660877 0 -0 0
20.0603196621 -42.5520660877 0 -0 0
23.3023836613 -42.5520660877 0 -0 0
26.5444476604 -42.5520660877 0 -0 0
29.7865116596 -42.5520660877 0 -0 0
33.0285756588 -42.5520660877 0 -0 0
36.270639658 -42.5520660877 0 -0 0
39.5127036572 -42.5520660877 0 -0 0
42.7547676563 -42.5520660877 0 -0 0
