TITLE = "B00080"
VARIABLES = "x", "y", "Vx", "Vy", "isValid"
ZONE T="Frame 0", I=25, J=25, F=POINT
-35.0547683239 35.2574698925 0 -0 0
-31.8127043247 35.2574698925 0 -0 0
-28.5706403255 35.2574698925 0 -0 0
-25.3285763264 35.2574698925 0 -0 0
-22.0865123272 35.2574698925 0 -0 0
-18.844448328 35.2574698925 0 -0 0
-15.6023843288 35.2574698925 0 -0 0
-12.3603203297 35.2574698925 0 -0 0
-9.1182563305 35.2574698925 0 -0 0
-5.8761923313 35.2574698925 0 -0 0
-2.6341283321 35.2574698925 0 -0 0
0.607935667 35.2574698925 0 -0 0
3.8499996662 35.2574698925 0 -0 0
7.0920636654 35.2574698925 0 -0 0
10.3341276646 35.2574698925 0 -0 0
13.5761916637 35.2574698925 0 -0 0
16.8182556629 35.2574698925 0 -0 0
20.0603196621 35.2574698925 0 -0 0
23.3023836613 35.2574698925 0 -0 0
26.5444476604 35.2574698925 0 -0 0
29.7865116596 35.2574698925 0 -0 0
33.0285756588 35.2574698925 0 -0 0
36.270639658 35.2574698925 0 -0 0
39.5127036572 35.2574698925 0 -0 0
42.7547676563 35.2574698925 0 -0 0
-35.0547683239 32.0154058933 0 -0 0
-31.8127043247 32.0154058933 0 -0 0
-28.5706403255 32.0154058933 0 -0 0
-25.3285763264 32.0154058933 0 -0 0
-22.0865123272 32.0154058933 0 -0 0
-18.844448328 32.0154058933 0 -0 0
-15.6023843288 32.0154058933 0 -0 0
-12.3603203297 32.0154058933 0 -0 0
-9.1182563305 32.0154058933 0 -0 0
-5.8761923313 32.0154058933 0 -0 0
-2.6341283321 32.0154058933 0 -0 0
0.607935667 32.0154058933 0 -0 0
3.8499996662 32.0154058933 0 -0 0
7.0920636654 32.0154058933 0 -0 0
10.3341276646 32.0154058933 0 -0 0
13.5761916637 32.0154058933 0 -0 0
16.8182556629 32.0154058933 0 -0 0
20.0603196621 32.0154058933 0 -0 0
23.3023836613 32.0154058933 0 -0 0
26.5444476604 32.0154058933 0 -0 0
29.7865116596 32.0154058933 0 -0 0
33.0285756588 32.0154058933 0 -0 0
36.270639658 32.0154058933 0 -0 0
39.5127036572 32.0154058933 0 -0 0
42.7547676563 32.0154058933 0 -0 0
-35.0547683239 28.7733418941 0 -0 0
-31.8127043247 28.7733418941 0 -0 0
-28.5706403255 28.7733418941 0 -0 0
-25.3285763264 28.7733418941 0 -0 0
-22.0865123272 28.7733418941 0 -0 0
-18.844448328 28.7733418941 0 -0 0
-15.6023843288 28.7733418941 0 -0 0
-12.3603203297 28.7733418941 0 -0 0
-9.1182563305 28.7733418941 0 -0 0
-5.8761923313 28.7733418941 0 -0 0
-2.6341283321 28.7733418941 0 -0 0
0.607935667 28.7733418941 0 -0 0
3.8499996662 28.7733418941 0 -0 0
7.0920636654 28.7733418941 0 -0 0
10.3341276646 28.7733418941 0 -0 0
13.5761916637 28.7733418941 0 -0 0
16.8182556629 28.7733418941 0 -0 0
20.0603196621 28.7733418941 0 -0 0
23.3023836613 28.7733418941 0 -0 0
26.5444476604 28.7733418941 0 -0 0
29.7865116596 28.7733418941 0 -0 0
33.0285756588 28.7733418941 0 -0 0
36.270639658 28.7733418941 0 -0 0
39.5127036572 28.7733418941 0 -0 0
42.7547676563 28.7733418941 0 -0 0
-35.0547683239 25.531277895 0 -0 0
-31.8127043247 25.531277895 0 -0 0
-28.5706403255 25.531277895 0 -0 0
-25.3285763264 25.531277895 0 -0 0
-22.0865123272 25.531277895 0 -0 0
-18.844448328 25.531277895 0 -0 0
-15.6023843288 25.531277895 0 -0 0
-12.3603203297 25.531277895 0 -0 0
-9.1182563305 25.531277895 4.9858419004 2.3280203986 1
-5.8761923313 25.531277895 2.5364980932 2.4116385056 1
-2.6341283321 25.531277895 1.19812067 1.5576331186 1
0.607935667 25.531277895 3.8196248163 -0.5140238991 1
3.8499996662 25.531277895 8.1134741202 -3.1773032816 1
7.0920636654 25.531277895 10.1490878691 -4.5423851733 1
10.3341276646 25.531277895 8.0359472145 -4.4632039342 1
13.5761916637 25.531277895 5.2711290896 -2.8302018803 1
16.8182556629 25.531277895 5.3192391178 -0.8037736213 1
20.0603196621 25.531277895 0 -0 0
23.3023836613 25.531277895 0 -0 0
26.5444476604 25.531277895 0 -0 0
29.7865116596 25.531277895 0 -0 0
33.0285756588 25.531277895 0 -0 0
36.270639658 25.531277895 0 -0 0
39.5127036572 25.531277895 0 -0 0
42.7547676563 25.531277895 0 -0 0
-35.0547683239 22.2892138958 0 -0 0
-31.8127043247 22.2892138958 0 -0 0
-28.5706403255 22.2892138958 0 -0 0
-25.3285763264 22.2892138958 0 -0 0
-22.0865123272 22.2892138958 0 -0 0
-18.844448328 22.2892138958 0 -0 0
-15.6023843288 22.2892138958 7.4489593379 9.1139722423 1
-12.3603203297 22.2892138958 5.6117574856 6.8187522692 1
-9.1182563305 22.2892138958 4.0196095221 5.5060764184 1
-5.8761923313 22.2892138958 1.959661313 4.6390119438 1
-2.6341283321 22.2892138958 0.5091391774 3.4508760763 1
0.607935667 22.2892138958 3.4411173519 0.6173096327 1
3.8499996662 22.2892138958 7.7109919579 -3.0647612152 1
7.0920636654 22.2892138958 9.5994458337 -5.3037495584 1
10.3341276646 22.2892138958 7.4058754151 -5.6994277883 1
13.5761916637 22.2892138958 5.1758257253 -4.0921755417 1
16.8182556629 22.2892138958 6.3484922634 -3.1575113687 1
20.0603196621 22.2892138958 10.520567965 -3.4809759438 1
23.3023836613 22.2892138958 0 -0 0
26.5444476604 22.2892138958 0 -0 0
29.7865116596 22.2892138958 0 -0 0
33.0285756588 22.2892138958 0 -0 0
36.270639658 22.2892138958 0 -0 0
39.5127036572 22.2892138958 0 -0 0
42.7547676563 22.2892138958 0 -0 0
-35.0547683239 19.0471498966 0 -0 0
-31.8127043247 19.0471498966 0 -0 0
-28.5706403255 19.0471498966 0 -0 0
-25.3285763264 19.0471498966 0 -0 0
-22.0865123272 19.0471498966 0 -0 0
-18.844448328 19.0471498966 9.7681093217 10.001520376 1
-15.6023843288 19.0471498966 6.485863218 8.0318184769 1
-12.3603203297 19.0471498966 4.3540786291 6.4247812122 1
-9.1182563305 19.0471498966 3.5604636527 5.749307793 1
-5.8761923313 19.0471498966 2.0323096114 5.0403563934 1
-2.6341283321 19.0471498966 1.1388978642 3.583233909 1
0.607935667 19.0471498966 3.5628728378 1.1128596279 1
3.8499996662 19.0471498966 6.6529638608 -1.5989642755 1
7.0920636654 19.0471498966 8.0047325818 -3.523120529 1
10.3341276646 19.0471498966 6.1963044733 -4.4358094557 1
13.5761916637 19.0471498966 4.6243835193 -4.3214466866 1
16.8182556629 19.0471498966 5.6128746663 -4.6124478022 1
20.0603196621 19.0471498966 9.8306038063 -5.5369420076 1
23.3023836613 19.0471498966 14.5170119904 -4.9367406008 1
26.5444476604 19.0471498966 0 -0 0
29.7865116596 19.0471498966 0 -0 0
33.0285756588 19.0471498966 0 -0 0
36.270639658 19.0471498966 0 -0 0
39.5127036572 19.0471498966 0 -0 0
42.7547676563 19.0471498966 0 -0 0
-35.0547683239 15.8050858974 0 -0 0
-31.8127043247 15.8050858974 0 -0 0
-28.5706403255 15.8050858974 0 -0 0
-25.3285763264 15.8050858974 0 -0 0
-22.0865123272 15.8050858974 9.0012499173 6.7231294516 1
-18.844448328 15.8050858974 6.8192305433 6.1015911011 1
-15.6023843288 15.8050858974 5.0249873083 4.241147965 1
-12.3603203297 15.8050858974 4.070665586 3.5712550144 1
-9.1182563305 15.8050858974 4.3828094974 4.3077778298 1
-5.8761923313 15.8050858974 3.6840461819 4.1410401198 1
-2.6341283321 15.8050858974 2.8047304622 3.046575023 1
0.607935667 15.8050858974 4.0271731374 1.4695952031 1
3.8499996662 15.8050858974 5.4409514262 0.4457192823 1
7.0920636654 15.8050858974 6.5236655935 -0.6484344758 1
10.3341276646 15.8050858974 5.390487468 -2.4422211764 1
13.5761916637 15.8050858974 4.2662652066 -3.6721210328 1
16.8182556629 15.8050858974 4.5220899251 -4.8389145217 1
20.0603196621 15.8050858974 7.6128292149 -5.698914489 1
23.3023836613 15.8050858974 11.6108445399 -4.8611566836 1
26.5444476604 15.8050858974 13.042181286 -3.2737654944 1
29.7865116596 15.8050858974 0 -0 0
33.0285756588 15.8050858974 0 -0 0
36.270639658 15.8050858974 0 -0 0
39.5127036572 15.8050858974 0 -0 0
42.7547676563 15.8050858974 0 -0 0
-35.0547683239 12.5630218983 0 -0 0
-31.8127043247 12.5630218983 0 -0 0
-28.5706403255 12.5630218983 0 -0 0
-25.3285763264 12.5630218983 0 -0 0
-22.0865123272 12.5630218983 7.0979284799 4.7686526118 1
-18.844448328 12.5630218983 4.0966847245 3.279850506 1
-15.6023843288 12.5630218983 3.8968165679 0.8811795243 1
-12.3603203297 12.5630218983 4.9549757073 0.7767257707 1
-9.1182563305 12.5630218983 6.0397783987 2.9681851707 1
-5.8761923313 12.5630218983 5.305819664 3.8639415631 1
-2.6341283321 12.5630218983 4.4502186712 3.3659676255 1
0.607935667 12.5630218983 4.7521316228 2.6848859592 1
3.8499996662 12.5630218983 5.3420096761 2.5148564913 1
7.0920636654 12.5630218983 6.3125142137 1.943089749 1
10.3341276646 12.5630218983 5.8440266001 -0.2194435403 1
13.5761916637 12.5630218983 5.1157207997 -1.8991744324 1
16.8182556629 12.5630218983 4.5289735699 -3.0473416506 1
20.0603196621 12.5630218983 4.9639312694 -4.0905652918 1
23.3023836613 12.5630218983 6.9535669936 -4.4594686255 1
26.5444476604 12.5630218983 7.8621477147 -4.5365377891 1
29.7865116596 12.5630218983 7.6786329699 -4.990806108 1
33.0285756588 12.5630218983 0 -0 0
36.270639658 12.5630218983 0 -0 0
39.5127036572 12.5630218983 0 -0 0
42.7547676563 12.5630218983 0 -0 0
-35.0547683239 9.3209578991 0 -0 0
-31.8127043247 9.3209578991 0 -0 0
-28.5706403255 9.3209578991 0 -0 0
-25.3285763264 9.3209578991 9.3646567219 7.4951804249 1
-22.0865123272 9.3209578991 6.803327325 6.9807754766 1
-18.844448328 9.3209578991 3.7323310338 4.8601883597 1
-15.6023843288 9.3209578991 3.768168681 2.4143405732 1
-12.3603203297 9.3209578991 4.8991824953 1.9799174598 1
-9.1182563305 9.3209578991 6.1031322066 3.9789486737 1
-5.8761923313 9.3209578991 5.6592485353 4.9884902226 1
-2.6341283321 9.3209578991 4.8171962269 4.859265025 1
0.607935667 9.3209578991 4.7481592906 4.7134487881 1
3.8499996662 9.3209578991 5.123987333 4.1901365883 1
7.0920636654 9.3209578991 6.2642936753 3.2079427172 1
10.3341276646 9.3209578991 6.6979463869 0.7229572223 1
13.5761916637 9.3209578991 7.0013382442 -1.0827073737 1
16.8182556629 9.3209578991 6.1976982317 -2.106821639 1
20.0603196621 9.3209578991 4.2795666015 -3.4597114659 1
23.3023836613 9.3209578991 3.3740215925 -5.0460570344 1
26.5444476604 9.3209578991 3.5557228813 -6.4602864226 1
29.7865116596 9.3209578991 4.5697485519 -8.0247947317 1
33.0285756588 9.3209578991 0 -0 0
36.270639658 9.3209578991 0 -0 0
39.5127036572 9.3209578991 0 -0 0
42.7547676563 9.3209578991 0 -0 0
-35.0547683239 6.0788938999 0 -0 0
-31.8127043247 6.0788938999 0 -0 0
-28.5706403255 6.0788938999 0 -0 0
-25.3285763264 6.0788938999 7.9302136096 10.0642721141 1
-22.0865123272 6.0788938999 7.2921373615 11.7886743446 1
-18.844448328 6.0788938999 5.2000818319 10.5228373515 1
-15.6023843288 6.0788938999 3.8636024837 8.0858900229 1
-12.3603203297 6.0788938999 3.2983458854 6.163212977 1
-9.1182563305 6.0788938999 3.6927958204 6.1829303106 1
-5.8761923313 6.0788938999 3.8215034916 5.9371735037 1
-2.6341283321 6.0788938999 3.7577982247 5.8215030294 1
0.607935667 6.0788938999 3.9705942756 6.1145890457 1
3.8499996662 6.0788938999 4.0047830245 5.0039710257 1
7.0920636654 6.0788938999 4.4017602034 3.1388930994 1
10.3341276646 6.0788938999 5.5147119233 0.5123577147 1
13.5761916637 6.0788938999 6.7273427325 -0.9332883046 1
16.8182556629 6.0788938999 6.5265340305 -1.5949555594 1
20.0603196621 6.0788938999 4.3979146863 -2.6893477374 1
23.3023836613 6.0788938999 2.5620978361 -4.7230915673 1
26.5444476604 6.0788938999 2.3627879678 -7.3456074415 1
29.7865116596 6.0788938999 3.1844490109 -9.4673455565 1
33.0285756588 6.0788938999 3.6530205641 -10.2504433334 1
36.270639658 6.0788938999 0 -0 0
39.5127036572 6.0788938999 0 -0 0
42.7547676563 6.0788938999 0 -0 0
-35.0547683239 2.8368299007 0 -0 0
-31.8127043247 2.8368299007 0 -0 0
-28.5706403255 2.8368299007 3.9011479077 6.9249110066 1
-25.3285763264 2.8368299007 5.0827301516 10.4908050633 1
-22.0865123272 2.8368299007 5.720188629 14.1919462236 1
-18.844448328 2.8368299007 5.1466093364 14.3906038998 1
-15.6023843288 2.8368299007 3.53929489 12.1874160651 1
-12.3603203297 2.8368299007 1.9596398752 9.2554725383 1
-9.1182563305 2.8368299007 1.3486063448 7.5906963555 1
-5.8761923313 2.8368299007 1.4112510448 6.1016611514 1
-2.6341283321 2.8368299007 1.5833568082 5.6375450356 1
0.607935667 2.8368299007 1.8196596998 5.995176318 1
3.8499996662 2.8368299007 1.232772747 4.9220086106 1
7.0920636654 2.8368299007 1.1575328912 2.5865299741 1
10.3341276646 2.8368299007 2.6002009446 -0.084101099 1
13.5761916637 2.8368299007 4.8015801543 -1.3458665346 1
16.8182556629 2.8368299007 5.5410592714 -1.1850269348 1
20.0603196621 2.8368299007 4.4529865619 -1.3295205202 1
23.3023836613 2.8368299007 3.1829737285 -2.8893961527 1
26.5444476604 2.8368299007 2.6608810673 -5.9031544455 1
29.7865116596 2.8368299007 2.5745124311 -8.9131055677 1
33.0285756588 2.8368299007 2.4688993006 -10.5002884178 1
36.270639658 2.8368299007 0 -0 0
39.5127036572 2.8368299007 0 -0 0
42.7547676563 2.8368299007 0 -0 0
-35.0547683239 -0.4052340984 0 -0 0
-31.8127043247 -0.4052340984 0 -0 0
-28.5706403255 -0.4052340984 1.0824383445 7.9718125879 1
-25.3285763264 -0.4052340984 1.3789818842 9.900474099 1
-22.0865123272 -0.4052340984 1.7821921765 12.0254453953 1
-18.844448328 -0.4052340984 2.2585811262 13.2271984878 1
-15.6023843288 -0.4052340984 2.1151138373 12.5924236597 1
-12.3603203297 -0.4052340984 1.3641408934 10.5816179651 1
-9.1182563305 -0.4052340984 -0.0366988152 8.9129467468 1
-5.8761923313 -0.4052340984 -0.9686559056 6.9772494128 1
-2.6341283321 -0.4052340984 -1.2069340935 5.7655316723 1
0.607935667 -0.4052340984 -1.1633558937 5.4054184372 1
3.8499996662 -0.4052340984 -1.8387111031 4.3233359298 1
7.0920636654 -0.4052340984 -2.1798112814 2.1381333457 1
10.3341276646 -0.4052340984 -0.9635865472 -0.4901542011 1
13.5761916637 -0.4052340984 1.3222781699 -1.9033612935 1
16.8182556629 -0.4052340984 2.8495197462 -1.5004752855 1
20.0603196621 -0.4052340984 3.2884624595 -0.9309372431 1
23.3023836613 -0.4052340984 3.0468820968 -2.0205518884 1
26.5444476604 -0.4052340984 2.3448614447 -4.9105321454 1
29.7865116596 -0.4052340984 1.5022144641 -8.5295091942 1
33.0285756588 -0.4052340984 0.9672845663 -10.8822241173 1
36.270639658 -0.4052340984 0 -0 0
39.5127036572 -0.4052340984 0 -0 0
42.7547676563 -0.4052340984 0 -0 0
-35.0547683239 -3.6472980976 0 -0 0
-31.8127043247 -3.6472980976 0 -0 0
-28.5706403255 -3.6472980976 -2.0312710863 9.7629201683 1
-25.3285763264 -3.6472980976 -2.5157991503 8.2906903814 1
-22.0865123272 -3.6472980976 -3.2376977684 7.6889062013 1
-18.844448328 -3.6472980976 -2.566321081 9.0412939008 1
-15.6023843288 -3.6472980976 -1.2459689911 10.4249795686 1
-12.3603203297 -3.6472980976 -0.2024768868 10.4207499829 1
-9.1182563305 -3.6472980976 -1.4083374678 9.794680106 1
-5.8761923313 -3.6472980976 -2.9732825341 8.531379415 1
-2.6341283321 -3.6472980976 -3.2920567619 6.9496610883 1
0.607935667 -3.6472980976 -2.9795779983 5.6685519331 1
3.8499996662 -3.6472980976 -3.3733065969 4.4752821673 1
7.0920636654 -3.6472980976 -4.0752668608 2.5279519628 1
10.3341276646 -3.6472980976 -3.6860688829 -0.1809153748 1
13.5761916637 -3.6472980976 -2.051588829 -2.4909954742 1
16.8182556629 -3.6472980976 -0.195891635 -3.0935992724 1
20.0603196621 -3.6472980976 1.3096143227 -3.0375119701 1
23.3023836613 -3.6472980976 1.7584427265 -3.7126330244 1
26.5444476604 -3.6472980976 1.0656397965 -5.7202870617 1
29.7865116596 -3.6472980976 -0.0528023192 -8.9829347965 1
33.0285756588 -3.6472980976 -0.537391847 -11.3989835994 1
36.270639658 -3.6472980976 0 -0 0
39.5127036572 -3.6472980976 0 -0 0
42.7547676563 -3.6472980976 0 -0 0
-35.0547683239 -6.8893620968 0 -0 0
-31.8127043247 -6.8893620968 0 -0 0
-28.5706403255 -6.8893620968 -5.0772257721 11.6990655824 1
-25.3285763264 -6.8893620968 -6.3672572759 8.1172683075 1
-22.0865123272 -6.8893620968 -7.3273762602 5.2440848623 1
-18.844448328 -6.8893620968 -7.1911792512 6.3678949747 1
-15.6023843288 -6.8893620968 -5.573247361 8.9284127549 1
-12.3603203297 -6.8893620968 -4.3013021069 9.5929637701 1
-9.1182563305 -6.8893620968 -4.2523173565 9.3284449701 1
-5.8761923313 -6.8893620968 -4.4807768847 9.0603904442 1
-2.6341283321 -6.8893620968 -3.8047539334 8.2248739449 1
0.607935667 -6.8893620968 -2.8472008414 6.7511241883 1
3.8499996662 -6.8893620968 -3.1900895657 5.3306337571 1
7.0920636654 -6.8893620968 -4.4097003388 3.4514902237 1
10.3341276646 -6.8893620968 -4.997744404 0.309676848 1
13.5761916637 -6.8893620968 -4.2522165083 -2.8681974979 1
16.8182556629 -6.8893620968 -2.4622732112 -4.4286745962 1
20.0603196621 -6.8893620968 -0.6556960749 -4.9153203215 1
23.3023836613 -6.8893620968 0.0427601763 -5.5864131846 1
26.5444476604 -6.8893620968 -0.6157121776 -7.1327664014 1
29.7865116596 -6.8893620968 -1.5338933306 -9.5574990197 1
33.0285756588 -6.8893620968 -1.8411002091 -11.4237318694 1
36.270639658 -6.8893620968 0 -0 0
39.5127036572 -6.8893620968 0 -0 0
42.7547676563 -6.8893620968 0 -0 0
-35.0547683239 -10.131426096 0 -0 0
-31.8127043247 -10.131426096 0 -0 0
-28.5706403255 -10.131426096 -6.7130295341 10.9003393533 1
-25.3285763264 -10.131426096 -7.5586676906 7.2386376913 1
-22.0865123272 -10.131426096 -8.3691484724 5.3628647223 1
-18.844448328 -10.131426096 -8.9844831485 7.2314895464 1
-15.6023843288 -10.131426096 -9.0721739831 10.1036355232 1
-12.3603203297 -10.131426096 -8.9428630344 10.6229778063 1
-9.1182563305 -10.131426096 -7.6425758118 10.0467106374 1
-5.8761923313 -10.131426096 -5.9173106347 9.8219852101 1
-2.6341283321 -10.131426096 -3.6191062794 9.1969244191 1
0.607935667 -10.131426096 -1.9113079206 7.6840842078 1
3.8499996662 -10.131426096 -2.4774319946 5.9798564492 1
7.0920636654 -10.131426096 -4.3684667088 4.0299217039 1
10.3341276646 -10.131426096 -5.7190225339 0.6963692274 1
13.5761916637 -10.131426096 -5.6180324179 -2.5728849706 1
16.8182556629 -10.131426096 -4.4289170546 -4.0968347891 1
20.0603196621 -10.131426096 -3.1937566359 -4.5442674718 1
23.3023836613 -10.131426096 -2.5129843078 -5.3540009502 1
26.5444476604 -10.131426096 -2.6097748812 -7.3244691749 1
29.7865116596 -10.131426096 -2.7158904412 -9.7467307103 1
33.0285756588 -10.131426096 -2.6769545801 -11.1988923085 1
36.270639658 -10.131426096 0 -0 0
39.5127036572 -10.131426096 0 -0 0
42.7547676563 -10.131426096 0 -0 0
-35.0547683239 -13.3734900951 0 -0 0
-31.8127043247 -13.3734900951 0 -0 0
-28.5706403255 -13.3734900951 0 -0 0
-25.3285763264 -13.3734900951 -8.0916087803 8.6741122331 1
-22.0865123272 -13.3734900951 -8.1684170672 8.2215586357 1
-18.844448328 -13.3734900951 -9.3243675625 9.7952688904 1
-15.6023843288 -13.3734900951 -10.7755834824 11.9687324719 1
-12.3603203297 -13.3734900951 -11.9548927166 12.1972991891 1
-9.1182563305 -13.3734900951 -10.0913646519 11.6566875971 1
-5.8761923313 -13.3734900951 -7.1088623577 10.9071088645 1
-2.6341283321 -13.3734900951 -3.9080804668 9.6290613883 1
0.607935667 -13.3734900951 -1.9952415558 7.7050316479 1
3.8499996662 -13.3734900951 -2.9219058091 5.5173533008 1
7.0920636654 -13.3734900951 -5.002405765 3.4960926065 1
10.3341276646 -13.3734900951 -6.7772354188 0.8187473151 1
13.5761916637 -13.3734900951 -7.0883358229 -1.5955546098 1
16.8182556629 -13.3734900951 -6.8801543322 -2.5819329265 1
20.0603196621 -13.3734900951 -6.4834905677 -2.8291197247 1
23.3023836613 -13.3734900951 -5.7417393467 -3.8194659955 1
26.5444476604 -13.3734900951 -4.8480977471 -6.0089369648 1
29.7865116596 -13.3734900951 -3.7902154873 -8.5102387329 1
33.0285756588 -13.3734900951 -3.1625051664 -10.1435381985 1
36.270639658 -13.3734900951 0 -0 0
39.5127036572 -13.3734900951 0 -0 0
42.7547676563 -13.3734900951 0 -0 0
-35.0547683239 -16.6155540943 0 -0 0
-31.8127043247 -16.6155540943 0 -0 0
-28.5706403255 -16.6155540943 0 -0 0
-25.3285763264 -16.6155540943 -8.8493441398 9.6201396436 1
-22.0865123272 -16.6155540943 -8.7716867956 9.9320365674 1
-18.844448328 -16.6155540943 -9.708208508 10.8383617913 1
-15.6023843288 -16.6155540943 -11.7338105061 12.2515446529 1
-12.3603203297 -16.6155540943 -12.9532005606 12.5875092724 1
-9.1182563305 -16.6155540943 -11.1111120994 12.258044833 1
-5.8761923313 -16.6155540943 -8.1693126234 11.233404134 1
-2.6341283321 -16.6155540943 -5.2991419428 9.5413204315 1
0.607935667 -16.6155540943 -4.003400136 7.3847715698 1
3.8499996662 -16.6155540943 -4.8407503213 4.5104374285 1
7.0920636654 -16.6155540943 -6.3266655719 2.0284899102 1
10.3341276646 -16.6155540943 -7.7079169935 0.0852304895 1
13.5761916637 -16.6155540943 -8.2642162182 -1.5694969738 1
16.8182556629 -16.6155540943 -8.578599322 -2.3873919102 1
20.0603196621 -16.6155540943 -8.5450247205 -2.6868700118 1
23.3023836613 -16.6155540943 -7.54344867 -3.3854787335 1
26.5444476604 -16.6155540943 -5.9753176761 -4.8385044862 1
29.7865116596 -16.6155540943 -4.2466284912 -6.9534764113 1
33.0285756588 -16.6155540943 0 -0 0
36.270639658 -16.6155540943 0 -0 0
39.5127036572 -16.6155540943 0 -0 0
42.7547676563 -16.6155540943 0 -0 0
-35.0547683239 -19.8576180935 0 -0 0
-31.8127043247 -19.8576180935 0 -0 0
-28.5706403255 -19.8576180935 0 -0 0
-25.3285763264 -19.8576180935 0 -0 0
-22.0865123272 -19.8576180935 -11.06445501 10.1852374211 1
-18.844448328 -19.8576180935 -11.3645164611 9.8641119808 1
-15.6023843288 -19.8576180935 -12.7108919168 9.9963282032 1
-12.3603203297 -19.8576180935 -13.1717054049 10.1160096582 1
-9.1182563305 -19.8576180935 -11.4509947018 10.2168796018 1
-5.8761923313 -19.8576180935 -8.485826221 10.0688006212 1
-2.6341283321 -19.8576180935 -6.5118325363 9.2792328583 1
0.607935667 -19.8576180935 -6.632310511 7.2820996439 1
3.8499996662 -19.8576180935 -7.6365810805 3.8962347281 1
7.0920636654 -19.8576180935 -8.1074685191 0.9290369791 1
10.3341276646 -19.8576180935 -8.6088737112 -0.7336478113 1
13.5761916637 -19.8576180935 -8.9718837657 -2.1472306689 1
16.8182556629 -19.8576180935 -9.2000917774 -3.2878549547 1
20.0603196621 -19.8576180935 -8.8596119363 -4.0536838355 1
23.3023836613 -19.8576180935 -7.577830661 -4.4049121627 1
26.5444476604 -19.8576180935 -6.0715057268 -4.7087143575 1
29.7865116596 -19.8576180935 -4.216348365 -5.6692433773 1
33.0285756588 -19.8576180935 0 -0 0
36.270639658 -19.8576180935 0 -0 0
39.5127036572 -19.8576180935 0 -0 0
42.7547676563 -19.8576180935 0 -0 0
-35.0547683239 -23.0996820927 0 -0 0
-31.8127043247 -23.0996820927 0 -0 0
-28.5706403255 -23.0996820927 0 -0 0
-25.3285763264 -23.0996820927 0 -0 0
-22.0865123272 -23.0996820927 -13.3946415314 9.9968632422 1
-18.844448328 -23.0996820927 -13.0679223371 9.4363954239 1
-15.6023843288 -23.0996820927 -13.7444241664 8.5436013719 1
-12.3603203297 -23.0996820927 -13.7445678902 7.5050110112 1
-9.1182563305 -23.0996820927 -12.012211937 7.1124910814 1
-5.8761923313 -23.0996820927 -9.0533932697 7.8476418781 1
-2.6341283321 -23.0996820927 -8.0197263546 8.6191306378 1
0.607935667 -23.0996820927 -9.518734661 7.3497234976 1
3.8499996662 -23.0996820927 -10.6393864734 4.1075062803 1
7.0920636654 -23.0996820927 -10.4371284558 1.0421910039 1
10.3341276646 -23.0996820927 -10.0819730875 -0.5212446984 1
13.5761916637 -23.0996820927 -10.1274646856 -1.7068449809 1
16.8182556629 -23.0996820927 -9.8412858654 -2.9794683938 1
20.0603196621 -23.0996820927 -8.9328337711 -4.2286753973 1
23.3023836613 -23.0996820927 -7.2040962756 -4.8819238651 1
26.5444476604 -23.0996820927 -5.7402030722 -5.1036123725 1
29.7865116596 -23.0996820927 0 -0 0
33.0285756588 -23.0996820927 0 -0 0
36.270639658 -23.0996820927 0 -0 0
39.5127036572 -23.0996820927 0 -0 0
42.7547676563 -23.0996820927 0 -0 0
-35.0547683239 -26.3417460918 0 -0 0
-31.8127043247 -26.3417460918 0 -0 0
-28.5706403255 -26.3417460918 0 -0 0
-25.3285763264 -26.3417460918 0 -0 0
-22.0865123272 -26.3417460918 0 -0 0
-18.844448328 -26.3417460918 -13.7832416667 9.6136491257 1
-15.6023843288 -26.3417460918 -14.2909767442 8.0242228559 1
-12.3603203297 -26.3417460918 -14.2310608335 6.1003730722 1
-9.1182563305 -26.3417460918 -12.9954106669 5.0436608328 1
-5.8761923313 -26.3417460918 -10.997052177 5.9320936528 1
-2.6341283321 -26.3417460918 -11.1374183836 7.2079182414 1
0.607935667 -26.3417460918 -12.6657566087 6.6349537001 1
3.8499996662 -26.3417460918 -13.2113357296 4.5298150787 1
7.0920636654 -26.3417460918 -12.2896978836 2.2691128189 1
10.3341276646 -26.3417460918 -11.8917641564 0.7411778356 1
13.5761916637 -26.3417460918 -11.6594618285 -0.4463333542 1
16.8182556629 -26.3417460918 -11.1610241099 -1.6319078208 1
20.0603196621 -26.3417460918 -9.6893976005 -3.1416392503 1
23.3023836613 -26.3417460918 -7.8867715851 -4.3863255972 1
26.5444476604 -26.3417460918 0 -0 0
29.7865116596 -26.3417460918 0 -0 0
33.0285756588 -26.3417460918 0 -0 0
36.270639658 -26.3417460918 0 -0 0
39.5127036572 -26.3417460918 0 -0 0
42.7547676563 -26.3417460918 0 -0 0
-35.0547683239 -29.583810091 0 -0 0
-31.8127043247 -29.583810091 0 -0 0
-28.5706403255 -29.583810091 0 -0 0
-25.3285763264 -29.583810091 0 -0 0
-22.0865123272 -29.583810091 0 -0 0
-18.844448328 -29.583810091 0 -0 0
-15.6023843288 -29.583810091 -14.6784681532 8.0996579163 1
-12.3603203297 -29.583810091 -14.7525354221 5.7351262408 1
-9.1182563305 -29.583810091 -13.917145134 4.1695046763 1
-5.8761923313 -29.583810091 -12.7817320432 4.3650484378 1
-2.6341283321 -29.583810091 -13.7770470507 5.0005980458 1
0.607935667 -29.583810091 -15.1249044314 4.7921650384 1
3.8499996662 -29.583810091 -15.1049340716 3.9387564373 1
7.0920636654 -29.583810091 -13.5313264767 2.7135609684 1
10.3341276646 -29.583810091 -13.0359383595 1.7493752954 1
13.5761916637 -29.583810091 -13.1450355841 1.1793649422 1
16.8182556629 -29.583810091 -12.8717176273 0.4363413051 1
20.0603196621 -29.583810091 -11.3535753368 -0.8314168991 1
23.3023836613 -29.583810091 0 -0 0
26.5444476604 -29.583810091 0 -0 0
29.7865116596 -29.583810091 0 -0 0
33.0285756588 -29.583810091 0 -0 0
36.270639658 -29.583810091 0 -0 0
39.5127036572 -29.583810091 0 -0 0
42.7547676563 -29.583810091 0 -0 0
-35.0547683239 -32.8258740902 0 -0 0
-31.8127043247 -32.8258740902 0 -0 0
-28.5706403255 -32.8258740902 0 -0 0
-25.3285763264 -32.8258740902 0 -0 0
-22.0865123272 -32.8258740902 0 -0 0
-18.844448328 -32.8258740902 0 -0 0
-15.6023843288 -32.8258740902 0 -0 0
-12.3603203297 -32.8258740902 0 -0 0
-9.1182563305 -32.8258740902 -14.2001167397 3.3003580184 1
-5.8761923313 -32.8258740902 -13.4280289296 3.0176143779 1
-2.6341283321 -32.8258740902 -14.6798413796 3.0147432235 1
0.607935667 -32.8258740902 -16.2329085505 2.809387596 1
3.8499996662 -32.8258740902 -16.4583580316 2.4953476479 1
7.0920636654 -32.8258740902 -14.8117508303 1.9790951242 1
10.3341276646 -32.8258740902 -13.7973241823 1.5665977389 1
13.5761916637 -32.8258740902 -13.8209021301 1.5149204319 1
16.8182556629 -32.8258740902 0 -0 0
20.0603196621 -32.8258740902 0 -0 0
23.3023836613 -32.8258740902 0 -0 0
26.5444476604 -32.8258740902 0 -0 0
29.7865116596 -32.8258740902 0 -0 0
33.0285756588 -32.8258740902 0 -0 0
36.270639658 -32.8258740902 0 -0 0
39.5127036572 -32.8258740902 0 -0 0
42.7547676563 -32.8258740902 0 -0 0
-35.0547683239 -36.0679380894 0 -0 0
-31.8127043247 -36.0679380894 0 -0 0
-28.5706403255 -36.0679380894 0 -0 0
-25.3285763264 -36.0679380894 0 -0 0
-22.0865123272 -36.0679380894 0 -0 0
-18.844448328 -36.0679380894 0 -0 0
-15.6023843288 -36.0679380894 0 -0 0
-12.3603203297 -36.0679380894 0 -0 0
-9.1182563305 -36.0679380894 0 -0 0
-5.8761923313 -36.0679380894 0 -0 0
-2.6341283321 -36.0679380894 0 -0 0
0.607935667 -36.0679380894 0 -0 0
3.8499996662 -36.0679380894 0 -0 0
7.0920636654 -36.0679380894 0 -0 0
10.3341276646 -36.0679380894 0 -0 0
13.5761916637 -36.0679380894 0 -0 0
16.8182556629 -36.0679380894 0 -0 0
20.0603196621 -36.0679380894 0 -0 0
23.3023836613 -36.0679380894 0 -0 0
26.5444476604 -36.0679380894 0 -0 0
29.7865116596 -36.0679380894 0 -0 0
33.0285756588 -36.0679380894 0 -0 0
36.270639658 -36.0679380894 0 -0 0
39.5127036572 -36.0679380894 0 -0 0
42.7547676563 -36.0679380894 0 -0 0
-35.0547683239 -39.3100020885 0 -0 0
-31.8127043247 -39.3100020885 0 -0 0
-28.5706403255 -39.3100020885 0 -0 0
-25.3285763264 -39.3100020885 0 -0 0
-22.0865123272 -39.3100020885 0 -0 0
-18.844448328 -39.3100020885 0 -0 0
-15.6023843288 -39.3100020885 0 -0 0
-12.3603203297 -39.3100020885 0 -0 0
-9.1182563305 -39.3100020885 0 -0 0
-5.8761923313 -39.3100020885 0 -0 0
-2.6341283321 -39.3100020885 0 -0 0
0.607935667 -39.3100020885 0 -0 0
3.8499996662 -39.3100020885 0 -0 0
7.0920636654 -39.3100020885 0 -0 0
10.3341276646 -39.3100020885 0 -0 0
13.5761916637 -39.3100020885 0 -0 0
16.8182556629 -39.3100020885 0 -0 0
20.0603196621 -39.3100020885 0 -0 0
23.3023836613 -39.3100020885 0 -0 0
26.5444476604 -39.3100020885 0 -0 0
29.7865116596 -39.3100020885 0 -0 0
33.0285756588 -39.3100020885 0 -0 0
36.270639658 -39.3100020885 0 -0 0
39.5127036572 -39.3100020885 0 -0 0
42.7547676563 -39.3100020885 0 -0 0
-35.0547683239 -42.5520660877 0 -0 0
-31.8127043247 -42.5520660877 0 -0 0
-28.5706403255 -42.5520660877 0 -0 0
-25.3285763264 -42.5520660877 0 -0 0
-22.0865123272 -42.5520660877 0 -0 0
-18.844448328 -42.5520660877 0 -0 0
-15.6023843288 -42.5520660877 0 -0 0
-12.3603203297 -42.5520660877 0 -0 0
-9.1182563305 -42.5520660877 0 -0 0
-5.8761923313 -42.5520660877 0 -0 0
-2.6341283321 -42.5520660877 0 -0 0
0.607935667 -42.5520660877 0 -0 0
3.8499996662 -42.5520660877 0 -0 0
7.0920636654 -42.5520660877 0 -0 0
10.3341276646 -42.5520660877 0 -0 0
13.5761916637 -42.5520660877 0 -0 0
16.8182556629 -42.5520660877 0 -0 0
20.0603196621 -42.5520660877 0 -0 0
23.3023836613 -42.5520660877 0 -0 0
26.5444476604 -42.5520660877 0 -0 0
29.7865116596 -42.5520660877 0 -0 0
33.0285756588 -42.5520660877 0 -0 0
36.270639658 -42.5520660877 0 -0 0
39.5127036572 -42.5520660877 0 -0 0
42.7547676563 -42.5520660877 0 -0 0
