TITLE = "B00090"
VARIABLES = "x", "y", "Vx", "Vy", "isValid"
ZONE T="Frame 0", I=25, J=25, F=POINT
-35.0547683239 35.2574698925 0 -0 0
-31.8127043247 35.2574698925 0 -0 0
-28.5706403255 35.2574698925 0 -0 0
-25.3285763264 35.2574698925 0 -0 0
-22.0865123272 35.2574698925 0 -0 0
-18.844448328 35.2574698925 0 -0 0
-15.6023843288 35.2574698925 0 -0 0
-12.3603203297 35.2574698925 0 -0 0
-9.1182563305 35.2574698925 0 -0 0
-5.8761923313 35.2574698925 0 -0 0
-2.6341283321 35.2574698925 0 -0 0
0.607935667 35.2574698925 0 -0 0
3.8499996662 35.2574698925 0 -0 0
7.0920636654 35.2574698925 0 -0 0
10.3341276646 35.2574698925 0 -0 0
13.5761916637 35.2574698925 0 -0 0
16.8182556629 35.2574698925 0 -0 0
20.0603196621 35.2574698925 0 -0 0
23.3023836613 35.2574698925 0 -0 0
26.5444476604 35.2574698925 0 -0 0
29.7865116596 35.2574698925 0 -0 0
33.0285756588 35.2574698925 0 -0 0
36.270639658 35.2574698925 0 -0 0
39.5127036572 35.2574698925 0 -0 0
42.7547676563 35.2574698925 0 -0 0
-35.0547683239 32.0154058933 0 -0 0
-31.8127043247 32.0154058933 0 -0 0
-28.5706403255 32.0154058933 0 -0 0
-25.3285763264 32.0154058933 0 -0 0
-22.0865123272 32.0154058933 0 -0 0
-18.844448328 32.0154058933 0 -0 0
-15.6023843288 32.0154058933 0 -0 0
-12.3603203297 32.0154058933 0 -0 0
-9.1182563305 32.0154058933 0 -0 0
-5.8761923313 32.0154058933 0 -0 0
-2.6341283321 32.0154058933 0 -0 0
0.607935667 32.0154058933 0 -0 0
3.8499996662 32.0154058933 0 -0 0
7.0920636654 32.0154058933 0 -0 0
10.3341276646 32.0154058933 0 -0 0
13.5761916637 32.0154058933 0 -0 0
16.8182556629 32.0154058933 0 -0 0
20.0603196621 32.0154058933 0 -0 0
23.3023836613 32.0154058933 0 -0 0
26.5444476604 32.0154058933 0 -0 0
29.7865116596 32.0154058933 0 -0 0
33.0285756588 32.0154058933 0 -0 0
36.270639658 32.0154058933 0 -0 0
39.5127036572 32.0154058933 0 -0 0
42.7547676563 32.0154058933 0 -0 0
-35.0547683239 28.7733418941 0 -0 0
-31.8127043247 28.7733418941 0 -0 0
-28.5706403255 28.7733418941 0 -0 0
-25.3285763264 28.7733418941 0 -0 0
-22.0865123272 28.7733418941 0 -0 0
-18.844448328 28.7733418941 0 -0 0
-15.6023843288 28.7733418941 0 -0 0
-12.3603203297 28.7733418941 0 -0 0
-9.1182563305 28.7733418941 0 -0 0
-5.8761923313 28.7733418941 0 -0 0
-2.6341283321 28.7733418941 0 -0 0
0.607935667 28.7733418941 0 -0 0
3.8499996662 28.7733418941 0 -0 0
7.0920636654 28.7733418941 0 -0 0
10.3341276646 28.7733418941 0 -0 0
13.5761916637 28.7733418941 0 -0 0
16.8182556629 28.7733418941 0 -0 0
20.0603196621 28.7733418941 0 -0 0
23.3023836613 28.7733418941 0 -0 0
26.5444476604 28.7733418941 0 -0 0
29.7865116596 28.7733418941 0 -0 0
33.0285756588 28.7733418941 0 -0 0
36.270639658 28.7733418941 0 -0 0
39.5127036572 28.7733418941 0 -0 0
42.7547676563 28.7733418941 0 -0 0
-35.0547683239 25.531277895 0 -0 0
-31.8127043247 25.531277895 0 -0 0
-28.5706403255 25.531277895 0 -0 0
-25.3285763264 25.531277895 0 -0 0
-22.0865123272 25.531277895 0 -0 0
-18.844448328 25.531277895 0 -0 0
-15.6023843288 25.531277895 0 -0 0
-12.3603203297 25.531277895 0 -0 0
-9.1182563305 25.531277895 -0.8119194538 3.8967160216 1
-5.8761923313 25.531277895 1.0595897346 4.8546030601 1
-2.6341283321 25.531277895 2.3752804636 4.9902976398 1
0.607935667 25.531277895 4.0309135792 4.9235436773 1
3.8499996662 25.531277895 6.7905522127 3.5100446837 1
7.0920636654 25.531277895 8.4011143336 0.5957304194 1
10.3341276646 25.531277895 8.2824419645 -1.9089358742 1
13.5761916637 25.531277895 6.527081751 -1.661611844 1
16.8182556629 25.531277895 0 -0 0
20.0603196621 25.531277895 0 -0 0
23.3023836613 25.531277895 0 -0 0
26.5444476604 25.531277895 0 -0 0
29.7865116596 25.531277895 0 -0 0
33.0285756588 25.531277895 0 -0 0
36.270639658 25.531277895 0 -0 0
39.5127036572 25.531277895 0 -0 0
42.7547676563 25.531277895 0 -0 0
-35.0547683239 22.2892138958 0 -0 0
-31.8127043247 22.2892138958 0 -0 0
-28.5706403255 22.2892138958 0 -0 0
-25.3285763264 22.2892138958 0 -0 0
-22.0865123272 22.2892138958 0 -0 0
-18.844448328 22.2892138958 0 -0 0
-15.6023843288 22.2892138958 -0.2022791534 3.068756193 1
-12.3603203297 22.2892138958 -0.9887601007 1.996259247 1
-9.1182563305 22.2892138958 -0.4228549714 1.7478927664 1
-5.8761923313 22.2892138958 1.6724092445 1.6590883743 1
-2.6341283321 22.2892138958 2.7080707801 1.5397786084 1
0.607935667 22.2892138958 3.3570978146 1.6639881175 1
3.8499996662 22.2892138958 4.6247271279 0.7501957485 1
7.0920636654 22.2892138958 5.8945980491 -1.3458837452 1
10.3341276646 22.2892138958 5.9530320347 -2.5289975835 1
13.5761916637 22.2892138958 5.0227284897 -1.0125497844 1
16.8182556629 22.2892138958 4.7945944536 2.8811081815 1
20.0603196621 22.2892138958 5.441553496 6.2604185679 1
23.3023836613 22.2892138958 0 -0 0
26.5444476604 22.2892138958 0 -0 0
29.7865116596 22.2892138958 0 -0 0
33.0285756588 22.2892138958 0 -0 0
36.270639658 22.2892138958 0 -0 0
39.5127036572 22.2892138958 0 -0 0
42.7547676563 22.2892138958 0 -0 0
-35.0547683239 19.0471498966 0 -0 0
-31.8127043247 19.0471498966 0 -0 0
-28.5706403255 19.0471498966 0 -0 0
-25.3285763264 19.0471498966 0 -0 0
-22.0865123272 19.0471498966 0 -0 0
-18.844448328 19.0471498966 3.2786131529 9.9660012763 1
-15.6023843288 19.0471498966 0.9395201348 7.3257415531 1
-12.3603203297 19.0471498966 0.4142723439 3.5249608577 1
-9.1182563305 19.0471498966 1.4774729877 0.3948493648 1
-5.8761923313 19.0471498966 3.3014848612 -0.9764264257 1
-2.6341283321 19.0471498966 3.6863200975 -1.0609203874 1
0.607935667 19.0471498966 3.5367226569 -0.8572861995 1
3.8499996662 19.0471498966 3.9644425352 -1.4834935349 1
7.0920636654 19.0471498966 5.100991527 -2.3932214798 1
10.3341276646 19.0471498966 5.3396581616 -2.2199068968 1
13.5761916637 19.0471498966 4.5415364179 -0.6324447893 1
16.8182556629 19.0471498966 4.0151127188 2.3484729578 1
20.0603196621 19.0471498966 4.1891845692 4.4299228192 1
23.3023836613 19.0471498966 4.5313380678 4.8690134834 1
26.5444476604 19.0471498966 0 -0 0
29.7865116596 19.0471498966 0 -0 0
33.0285756588 19.0471498966 0 -0 0
36.270639658 19.0471498966 0 -0 0
39.5127036572 19.0471498966 0 -0 0
42.7547676563 19.0471498966 0 -0 0
-35.0547683239 15.8050858974 0 -0 0
-31.8127043247 15.8050858974 0 -0 0
-28.5706403255 15.8050858974 0 -0 0
-25.3285763264 15.8050858974 0 -0 0
-22.0865123272 15.8050858974 6.2501350705 11.3271990024 1
-18.844448328 15.8050858974 4.3756776573 10.6383453817 1
-15.6023843288 15.8050858974 2.3971678452 8.7420090413 1
-12.3603203297 15.8050858974 2.765377621 4.8574014468 1
-9.1182563305 15.8050858974 4.0984667787 0.6668096828 1
-5.8761923313 15.8050858974 4.5470395896 -1.703512612 1
-2.6341283321 15.8050858974 3.7438310504 -2.3712026031 1
0.607935667 15.8050858974 3.1273674178 -2.5739456884 1
3.8499996662 15.8050858974 3.14171232 -3.0447135584 1
7.0920636654 15.8050858974 4.2751951036 -2.8807989942 1
10.3341276646 15.8050858974 5.2412399768 -1.7308456457 1
13.5761916637 15.8050858974 4.9826630684 -0.4265625394 1
16.8182556629 15.8050858974 3.7301108636 0.7954229975 1
20.0603196621 15.8050858974 2.8089624635 1.7469040615 1
23.3023836613 15.8050858974 3.1849293986 1.9714505888 1
26.5444476604 15.8050858974 4.5796180886 1.0403638096 1
29.7865116596 15.8050858974 0 -0 0
33.0285756588 15.8050858974 0 -0 0
36.270639658 15.8050858974 0 -0 0
39.5127036572 15.8050858974 0 -0 0
42.7547676563 15.8050858974 0 -0 0
-35.0547683239 12.5630218983 0 -0 0
-31.8127043247 12.5630218983 0 -0 0
-28.5706403255 12.5630218983 0 -0 0
-25.3285763264 12.5630218983 0 -0 0
-22.0865123272 12.5630218983 5.5682049508 10.3580042836 1
-18.844448328 12.5630218983 5.0850061808 8.4374855101 1
-15.6023843288 12.5630218983 3.4490982493 6.9008288179 1
-12.3603203297 12.5630218983 3.9818364348 4.3711485464 1
-9.1182563305 12.5630218983 4.6883919347 1.4552438092 1
-5.8761923313 12.5630218983 3.8994573415 -0.5306920842 1
-2.6341283321 12.5630218983 2.4480442543 -1.7068277703 1
0.607935667 12.5630218983 1.8202050048 -2.873805745 1
3.8499996662 12.5630218983 1.7273715156 -3.4690815926 1
7.0920636654 12.5630218983 2.89913978 -2.4151908383 1
10.3341276646 12.5630218983 4.4754883928 -1.0745912069 1
13.5761916637 12.5630218983 4.8441664788 -0.474407124 1
16.8182556629 12.5630218983 3.2774627587 -0.5758699659 1
20.0603196621 12.5630218983 1.3927428329 -0.1284823573 1
23.3023836613 12.5630218983 1.5720027799 -0.0461419125 1
26.5444476604 12.5630218983 3.6856573376 -0.4818634371 1
29.7865116596 12.5630218983 5.3319858477 -0.691878161 1
33.0285756588 12.5630218983 0 -0 0
36.270639658 12.5630218983 0 -0 0
39.5127036572 12.5630218983 0 -0 0
42.7547676563 12.5630218983 0 -0 0
-35.0547683239 9.3209578991 0 -0 0
-31.8127043247 9.3209578991 0 -0 0
-28.5706403255 9.3209578991 0 -0 0
-25.3285763264 9.3209578991 2.2821146887 9.4923498722 1
-22.0865123272 9.3209578991 4.0343424181 7.6271224852 1
-18.844448328 9.3209578991 4.8684355688 4.9117537976 1
-15.6023843288 9.3209578991 3.6172423992 2.8079189563 1
-12.3603203297 9.3209578991 3.2691403663 1.7936256152 1
-9.1182563305 9.3209578991 3.2020769146 1.1551345005 1
-5.8761923313 9.3209578991 2.3315020771 0.7703938472 1
-2.6341283321 9.3209578991 1.3088220303 0.1151228859 1
0.607935667 9.3209578991 0.8708346575 -1.5610932084 1
3.8499996662 9.3209578991 0.7241746473 -2.3904043728 1
7.0920636654 9.3209578991 1.7699083218 -1.4457147108 1
10.3341276646 9.3209578991 3.3351757098 -0.2457373506 1
13.5761916637 9.3209578991 3.7522391939 0.0021256627 1
16.8182556629 9.3209578991 2.34461023 -0.5235228035 1
20.0603196621 9.3209578991 0.4727151991 -0.6299283397 1
23.3023836613 9.3209578991 0.4446886453 -1.171648092 1
26.5444476604 9.3209578991 2.4449372842 -1.8002752559 1
29.7865116596 9.3209578991 3.7079052365 -1.6045483673 1
33.0285756588 9.3209578991 0 -0 0
36.270639658 9.3209578991 0 -0 0
39.5127036572 9.3209578991 0 -0 0
42.7547676563 9.3209578991 0 -0 0
-35.0547683239 6.0788938999 0 -0 0
-31.8127043247 6.0788938999 0 -0 0
-28.5706403255 6.0788938999 0 -0 0
-25.3285763264 6.0788938999 0.2157904727 5.7710897973 1
-22.0865123272 6.0788938999 2.1550720696 4.981050403 1
-18.844448328 6.0788938999 3.1903770133 3.6142643578 1
-15.6023843288 6.0788938999 2.2835135801 1.366425377 1
-12.3603203297 6.0788938999 1.128651732 -0.3241463951 1
-9.1182563305 6.0788938999 0.7687040359 -0.5215496208 1
-5.8761923313 6.0788938999 0.5905327362 0.6546761946 1
-2.6341283321 6.0788938999 0.3388972188 1.3889315861 1
0.607935667 6.0788938999 0.3384978267 0.4381742363 1
3.8499996662 6.0788938999 0.3218983331 -0.4240310683 1
7.0920636654 6.0788938999 1.3703009372 -0.0797209392 1
10.3341276646 6.0788938999 2.5737461055 0.4085201843 1
13.5761916637 6.0788938999 2.9085358736 0.1665360136 1
16.8182556629 6.0788938999 2.005979323 -0.4365467003 1
20.0603196621 6.0788938999 0.5967594334 -0.9464609973 1
23.3023836613 6.0788938999 0.0800215401 -2.047706777 1
26.5444476604 6.0788938999 1.1590401794 -3.2941803111 1
29.7865116596 6.0788938999 2.1410876847 -3.2592850209 1
33.0285756588 6.0788938999 2.781058309 -2.5310356834 1
36.270639658 6.0788938999 0 -0 0
39.5127036572 6.0788938999 0 -0 0
42.7547676563 6.0788938999 0 -0 0
-35.0547683239 2.8368299007 0 -0 0
-31.8127043247 2.8368299007 0 -0 0
-28.5706403255 2.8368299007 -2.6784618682 3.6332745462 1
-25.3285763264 2.8368299007 -1.5879854086 4.2210975908 1
-22.0865123272 2.8368299007 -0.3100740699 4.4307036379 1
-18.844448328 2.8368299007 0.5484274411 3.7142200249 1
-15.6023843288 2.8368299007 0.0311355903 0.9116087337 1
-12.3603203297 2.8368299007 -1.1104762588 -1.6463902569 1
-9.1182563305 2.8368299007 -1.3798643059 -1.8252786658 1
-5.8761923313 2.8368299007 -1.1260494558 0.0509665196 1
-2.6341283321 2.8368299007 -0.7742415534 1.7480784599 1
0.607935667 2.8368299007 -0.552494092 1.8191077521 1
3.8499996662 2.8368299007 -0.3138122282 1.1821733684 1
7.0920636654 2.8368299007 0.5657118494 0.6861252842 1
10.3341276646 2.8368299007 1.572552463 0.3676859842 1
13.5761916637 2.8368299007 2.0827672288 -0.0143643266 1
16.8182556629 2.8368299007 1.7053376928 -0.4051276915 1
20.0603196621 2.8368299007 0.8279692643 -1.1381205933 1
23.3023836613 2.8368299007 0.2360967227 -2.5995889107 1
26.5444476604 2.8368299007 0.7551685613 -4.3623560323 1
29.7865116596 2.8368299007 1.4650819441 -5.0727950938 1
33.0285756588 2.8368299007 2.0216870346 -4.7742798812 1
36.270639658 2.8368299007 0 -0 0
39.5127036572 2.8368299007 0 -0 0
42.7547676563 2.8368299007 0 -0 0
-35.0547683239 -0.4052340984 0 -0 0
-31.8127043247 -0.4052340984 0 -0 0
-28.5706403255 -0.4052340984 -2.8972487252 3.5681676704 1
-25.3285763264 -0.4052340984 -2.7958757483 4.5587349619 1
-22.0865123272 -0.4052340984 -2.4157598456 5.3238533761 1
-18.844448328 -0.4052340984 -1.6305937747 4.9505697882 1
-15.6023843288 -0.4052340984 -1.3789109281 2.1872748034 1
-12.3603203297 -0.4052340984 -1.6899405272 -0.3880665683 1
-9.1182563305 -0.4052340984 -2.030615573 -0.6789839331 1
-5.8761923313 -0.4052340984 -2.2458744035 0.2529023286 1
-2.6341283321 -0.4052340984 -2.0193001931 1.1127887474 1
0.607935667 -0.4052340984 -1.7348714214 1.2688681761 1
3.8499996662 -0.4052340984 -1.3445847962 1.1173127253 1
7.0920636654 -0.4052340984 -0.752465286 0.7572662945 1
10.3341276646 -0.4052340984 0.216212114 0.1960634015 1
13.5761916637 -0.4052340984 0.9247577996 -0.1100663883 1
16.8182556629 -0.4052340984 0.8307025828 -0.4017738848 1
20.0603196621 -0.4052340984 0.2564665691 -1.0998372262 1
23.3023836613 -0.4052340984 -0.0607316885 -2.6542528644 1
26.5444476604 -0.4052340984 0.3939368245 -4.6971328169 1
29.7865116596 -0.4052340984 0.919462967 -5.8700134309 1
33.0285756588 -0.4052340984 1.2442671776 -6.0315336052 1
36.270639658 -0.4052340984 0 -0 0
39.5127036572 -0.4052340984 0 -0 0
42.7547676563 -0.4052340984 0 -0 0
-35.0547683239 -3.6472980976 0 -0 0
-31.8127043247 -3.6472980976 0 -0 0
-28.5706403255 -3.6472980976 -3.1211927299 4.163632231 1
-25.3285763264 -3.6472980976 -3.3835291023 5.6185046532 1
-22.0865123272 -3.6472980976 -3.104309412 6.9376051988 1
-18.844448328 -3.6472980976 -2.100846232 6.7258674501 1
-15.6023843288 -3.6472980976 -1.215574203 4.5235090466 1
-12.3603203297 -3.6472980976 -1.4130847309 2.5562812498 1
-9.1182563305 -3.6472980976 -2.5080201003 1.7517586645 1
-5.8761923313 -3.6472980976 -3.5000259884 0.9635070613 1
-2.6341283321 -3.6472980976 -3.4932604024 0.1540504247 1
0.607935667 -3.6472980976 -2.905854036 -0.2636637793 1
3.8499996662 -3.6472980976 -2.2833869159 -0.138019929 1
7.0920636654 -3.6472980976 -1.8827788997 0.1592250284 1
10.3341276646 -3.6472980976 -0.9037588031 0.1167504125 1
13.5761916637 -3.6472980976 0.0625760746 0.0500131936 1
16.8182556629 -3.6472980976 0.2154198215 -0.4096925069 1
20.0603196621 -3.6472980976 -0.3323613342 -1.1912621618 1
23.3023836613 -3.6472980976 -0.7215379499 -2.6155036027 1
26.5444476604 -3.6472980976 -0.58134083 -4.5894067051 1
29.7865116596 -3.6472980976 -0.2390769344 -5.8080986726 1
33.0285756588 -3.6472980976 0.1439238233 -6.0293421193 1
36.270639658 -3.6472980976 0 -0 0
39.5127036572 -3.6472980976 0 -0 0
42.7547676563 -3.6472980976 0 -0 0
-35.0547683239 -6.8893620968 0 -0 0
-31.8127043247 -6.8893620968 0 -0 0
-28.5706403255 -6.8893620968 -4.4960556896 5.5029917919 1
-25.3285763264 -6.8893620968 -4.4571841419 6.3091946774 1
-22.0865123272 -6.8893620968 -2.9879130722 7.3361536773 1
-18.844448328 -6.8893620968 -1.0559197205 7.2473915569 1
-15.6023843288 -6.8893620968 0.2769717038 6.4129076949 1
-12.3603203297 -6.8893620968 -0.3985596125 5.2106630429 1
-9.1182563305 -6.8893620968 -2.4079163313 3.9531529713 1
-5.8761923313 -6.8893620968 -3.7821144175 1.7304398373 1
-2.6341283321 -6.8893620968 -3.9691663979 -0.5302755569 1
0.607935667 -6.8893620968 -3.3072178099 -1.5704610705 1
3.8499996662 -6.8893620968 -2.6495978441 -1.3625197736 1
7.0920636654 -6.8893620968 -2.2235935931 -0.5449834296 1
10.3341276646 -6.8893620968 -1.1586450899 -0.0933466563 1
13.5761916637 -6.8893620968 -0.096788507 0.060514829 1
16.8182556629 -6.8893620968 0.1532194839 -0.4239194257 1
20.0603196621 -6.8893620968 -0.4239301446 -1.4323530786 1
23.3023836613 -6.8893620968 -1.2514055849 -3.0601019678 1
26.5444476604 -6.8893620968 -1.6545492993 -4.7602885517 1
29.7865116596 -6.8893620968 -1.3365629858 -5.2509431441 1
33.0285756588 -6.8893620968 -0.5529070715 -5.0368668644 1
36.270639658 -6.8893620968 0 -0 0
39.5127036572 -6.8893620968 0 -0 0
42.7547676563 -6.8893620968 0 -0 0
-35.0547683239 -10.131426096 0 -0 0
-31.8127043247 -10.131426096 0 -0 0
-28.5706403255 -10.131426096 -6.4107971292 7.5541252943 1
-25.3285763264 -10.131426096 -5.448018047 7.2322691574 1
-22.0865123272 -10.131426096 -2.9518263238 7.2309895326 1
-18.844448328 -10.131426096 -0.6153900823 7.1752047749 1
-15.6023843288 -10.131426096 0.4579364458 7.3074554186 1
-12.3603203297 -10.131426096 0.0752613454 6.5021982115 1
-9.1182563305 -10.131426096 -1.559169393 4.8272855764 1
-5.8761923313 -10.131426096 -2.4525381892 2.2809735037 1
-2.6341283321 -10.131426096 -2.9036682871 -0.2099059686 1
0.607935667 -10.131426096 -2.8848936125 -1.4120326184 1
3.8499996662 -10.131426096 -2.6788072884 -1.3520202376 1
7.0920636654 -10.131426096 -2.246202915 -0.4631454141 1
10.3341276646 -10.131426096 -1.0697923874 0.2484234153 1
13.5761916637 -10.131426096 -0.0088719581 0.568488119 1
16.8182556629 -10.131426096 0.1379512186 0.4197110513 1
20.0603196621 -10.131426096 -0.5421320146 -0.5775318477 1
23.3023836613 -10.131426096 -1.6857406826 -2.4946713006 1
26.5444476604 -10.131426096 -2.2453547635 -4.3089566064 1
29.7865116596 -10.131426096 -1.5061824182 -4.8183363551 1
33.0285756588 -10.131426096 -0.1859997925 -4.3551647099 1
36.270639658 -10.131426096 0 -0 0
39.5127036572 -10.131426096 0 -0 0
42.7547676563 -10.131426096 0 -0 0
-35.0547683239 -13.3734900951 0 -0 0
-31.8127043247 -13.3734900951 0 -0 0
-28.5706403255 -13.3734900951 0 -0 0
-25.3285763264 -13.3734900951 -6.3857614116 6.9896748777 1
-22.0865123272 -13.3734900951 -3.9919345406 5.5519303454 1
-18.844448328 -13.3734900951 -2.2352675276 5.0865563446 1
-15.6023843288 -13.3734900951 -1.4224806735 5.8491710662 1
-12.3603203297 -13.3734900951 -0.6040703998 5.8384974614 1
-9.1182563305 -13.3734900951 -0.8127482057 4.7931333624 1
-5.8761923313 -13.3734900951 -0.9999633095 2.7943446069 1
-2.6341283321 -13.3734900951 -1.8696212285 0.4350072178 1
0.607935667 -13.3734900951 -2.686945195 -0.6775045745 1
3.8499996662 -13.3734900951 -3.1634885874 -0.342205923 1
7.0920636654 -13.3734900951 -2.9333843879 0.8432547118 1
10.3341276646 -13.3734900951 -1.6389288486 1.780223221 1
13.5761916637 -13.3734900951 -0.3841502083 2.0398825869 1
16.8182556629 -13.3734900951 -0.4528992819 2.4523491743 1
20.0603196621 -13.3734900951 -1.4181241217 1.6235253422 1
23.3023836613 -13.3734900951 -2.5817590086 -0.6769205456 1
26.5444476604 -13.3734900951 -2.6980907332 -3.0437086997 1
29.7865116596 -13.3734900951 -1.2736177037 -4.0947994066 1
33.0285756588 -13.3734900951 0.5600169453 -3.8309506131 1
36.270639658 -13.3734900951 0 -0 0
39.5127036572 -13.3734900951 0 -0 0
42.7547676563 -13.3734900951 0 -0 0
-35.0547683239 -16.6155540943 0 -0 0
-31.8127043247 -16.6155540943 0 -0 0
-28.5706403255 -16.6155540943 0 -0 0
-25.3285763264 -16.6155540943 -6.880343951 5.7709714365 1
-22.0865123272 -16.6155540943 -5.1262742321 4.4155619142 1
-18.844448328 -16.6155540943 -4.4261902279 3.8641393343 1
-15.6023843288 -16.6155540943 -3.9563499197 4.141716467 1
-12.3603203297 -16.6155540943 -2.4251728479 4.1382402234 1
-9.1182563305 -16.6155540943 -1.4251516412 3.3581026734 1
-5.8761923313 -16.6155540943 -1.4842578979 1.6657724363 1
-2.6341283321 -16.6155540943 -2.6376189495 -0.5397680451 1
0.607935667 -16.6155540943 -3.7621180907 -1.1341355795 1
3.8499996662 -16.6155540943 -4.595597094 0.0758689822 1
7.0920636654 -16.6155540943 -4.2435227288 2.0081994932 1
10.3341276646 -16.6155540943 -2.4903727214 3.2940643658 1
13.5761916637 -16.6155540943 -1.0420599616 3.3363242924 1
16.8182556629 -16.6155540943 -1.4099113338 3.577013628 1
20.0603196621 -16.6155540943 -2.5245465242 2.6504632063 1
23.3023836613 -16.6155540943 -3.4920946093 0.4274643231 1
26.5444476604 -16.6155540943 -3.2168922404 -1.9532822112 1
29.7865116596 -16.6155540943 -1.5870219157 -3.3167238099 1
33.0285756588 -16.6155540943 0 -0 0
36.270639658 -16.6155540943 0 -0 0
39.5127036572 -16.6155540943 0 -0 0
42.7547676563 -16.6155540943 0 -0 0
-35.0547683239 -19.8576180935 0 -0 0
-31.8127043247 -19.8576180935 0 -0 0
-28.5706403255 -19.8576180935 0 -0 0
-25.3285763264 -19.8576180935 0 -0 0
-22.0865123272 -19.8576180935 -4.8971190324 3.6785173452 1
-18.844448328 -19.8576180935 -5.3420181304 3.1742349599 1
-15.6023843288 -19.8576180935 -5.5685878116 2.9284011581 1
-12.3603203297 -19.8576180935 -4.3587958491 2.4028512755 1
-9.1182563305 -19.8576180935 -3.3077223528 1.4020312847 1
-5.8761923313 -19.8576180935 -3.4649440988 -0.2406829949 1
-2.6341283321 -19.8576180935 -4.4780799501 -2.28885778 1
0.607935667 -19.8576180935 -5.3572045414 -2.4100592047 1
3.8499996662 -19.8576180935 -6.0279779511 -0.6734808368 1
7.0920636654 -19.8576180935 -5.2051363198 1.7422276034 1
10.3341276646 -19.8576180935 -2.9521527218 3.3344241794 1
13.5761916637 -19.8576180935 -1.4956012072 3.411549202 1
16.8182556629 -19.8576180935 -2.035292031 3.184519665 1
20.0603196621 -19.8576180935 -3.0626397796 1.8704157856 1
23.3023836613 -19.8576180935 -3.8055525667 -0.083540697 1
26.5444476604 -19.8576180935 -3.6794449071 -1.8680061476 1
29.7865116596 -19.8576180935 -2.6025971462 -2.9323327284 1
33.0285756588 -19.8576180935 0 -0 0
36.270639658 -19.8576180935 0 -0 0
39.5127036572 -19.8576180935 0 -0 0
42.7547676563 -19.8576180935 0 -0 0
-35.0547683239 -23.0996820927 0 -0 0
-31.8127043247 -23.0996820927 0 -0 0
-28.5706403255 -23.0996820927 0 -0 0
-25.3285763264 -23.0996820927 0 -0 0
-22.0865123272 -23.0996820927 -3.9884290087 3.1988630575 1
-18.844448328 -23.0996820927 -5.0602887088 2.7296519938 1
-15.6023843288 -23.0996820927 -5.9683585462 2.0744021118 1
-12.3603203297 -23.0996820927 -5.5023619435 1.3617016652 1
-9.1182563305 -23.0996820927 -4.9671671682 0.5502524841 1
-5.8761923313 -23.0996820927 -5.0548432077 -0.9103419414 1
-2.6341283321 -23.0996820927 -5.4522886967 -2.800350208 1
0.607935667 -23.0996820927 -5.4325882718 -3.2473728552 1
3.8499996662 -23.0996820927 -5.3852675167 -1.9093024303 1
7.0920636654 -23.0996820927 -4.5369565809 0.4467370112 1
10.3341276646 -23.0996820927 -3.0295546241 2.2698750683 1
13.5761916637 -23.0996820927 -2.2527666536 2.5200397569 1
16.8182556629 -23.0996820927 -2.6839348459 1.5025385975 1
20.0603196621 -23.0996820927 -3.0376837744 -0.4250681215 1
23.3023836613 -23.0996820927 -3.4203975751 -1.7560721898 1
26.5444476604 -23.0996820927 -3.6249914061 -2.350677578 1
29.7865116596 -23.0996820927 0 -0 0
33.0285756588 -23.0996820927 0 -0 0
36.270639658 -23.0996820927 0 -0 0
39.5127036572 -23.0996820927 0 -0 0
42.7547676563 -23.0996820927 0 -0 0
-35.0547683239 -26.3417460918 0 -0 0
-31.8127043247 -26.3417460918 0 -0 0
-28.5706403255 -26.3417460918 0 -0 0
-25.3285763264 -26.3417460918 0 -0 0
-22.0865123272 -26.3417460918 0 -0 0
-18.844448328 -26.3417460918 -4.9538087064 1.7928905405 1
-15.6023843288 -26.3417460918 -6.1237130907 1.0572818506 1
-12.3603203297 -26.3417460918 -5.9041955371 0.6259883529 1
-9.1182563305 -26.3417460918 -5.8424848907 0.4243789041 1
-5.8761923313 -26.3417460918 -5.4701394327 -0.461938708 1
-2.6341283321 -26.3417460918 -5.2184247313 -1.8230221118 1
0.607935667 -26.3417460918 -3.8830190843 -2.3234417693 1
3.8499996662 -26.3417460918 -3.1507195139 -1.5393835189 1
7.0920636654 -26.3417460918 -2.9717429383 -0.0803114032 1
10.3341276646 -26.3417460918 -3.2283662901 1.2044434599 1
13.5761916637 -26.3417460918 -3.3235081161 1.4223088692 1
16.8182556629 -26.3417460918 -3.1672975697 0.2473111978 1
20.0603196621 -26.3417460918 -2.8809004463 -1.6899399233 1
23.3023836613 -26.3417460918 -2.9428915957 -2.5576614209 1
26.5444476604 -26.3417460918 0 -0 0
29.7865116596 -26.3417460918 0 -0 0
33.0285756588 -26.3417460918 0 -0 0
36.270639658 -26.3417460918 0 -0 0
39.5127036572 -26.3417460918 0 -0 0
42.7547676563 -26.3417460918 0 -0 0
-35.0547683239 -29.583810091 0 -0 0
-31.8127043247 -29.583810091 0 -0 0
-28.5706403255 -29.583810091 0 -0 0
-25.3285763264 -29.583810091 0 -0 0
-22.0865123272 -29.583810091 0 -0 0
-18.844448328 -29.583810091 0 -0 0
-15.6023843288 -29.583810091 -6.3136809127 -0.190850508 1
-12.3603203297 -29.583810091 -5.9748490641 -0.3569234578 1
-9.1182563305 -29.583810091 -5.7940445393 -0.1654946578 1
-5.8761923313 -29.583810091 -5.0057509663 -0.4742439627 1
-2.6341283321 -29.583810091 -4.3247058349 -0.9139791194 1
0.607935667 -29.583810091 -2.5480340407 -0.8412557132 1
3.8499996662 -29.583810091 -1.803820191 -0.3279897609 1
7.0920636654 -29.583810091 -2.5342386707 0.1422970138 1
10.3341276646 -29.583810091 -3.8598321498 0.4179439432 1
13.5761916637 -29.583810091 -4.0019381389 0.2327922834 1
16.8182556629 -29.583810091 -3.1625598177 -0.729866683 1
20.0603196621 -29.583810091 -2.5338512807 -2.3025624169 1
23.3023836613 -29.583810091 0 -0 0
26.5444476604 -29.583810091 0 -0 0
29.7865116596 -29.583810091 0 -0 0
33.0285756588 -29.583810091 0 -0 0
36.270639658 -29.583810091 0 -0 0
39.5127036572 -29.583810091 0 -0 0
42.7547676563 -29.583810091 0 -0 0
-35.0547683239 -32.8258740902 0 -0 0
-31.8127043247 -32.8258740902 0 -0 0
-28.5706403255 -32.8258740902 0 -0 0
-25.3285763264 -32.8258740902 0 -0 0
-22.0865123272 -32.8258740902 0 -0 0
-18.844448328 -32.8258740902 0 -0 0
-15.6023843288 -32.8258740902 0 -0 0
-12.3603203297 -32.8258740902 0 -0 0
-9.1182563305 -32.8258740902 -4.7070530796 -1.6444883323 1
-5.8761923313 -32.8258740902 -3.5621850168 -1.7362826924 1
-2.6341283321 -32.8258740902 -2.797248069 -1.178336985 1
0.607935667 -32.8258740902 -1.9622765727 -0.096578092 1
3.8499996662 -32.8258740902 -2.563545038 0.7220575899 1
7.0920636654 -32.8258740902 -3.7514731702 0.4450815834 1
10.3341276646 -32.8258740902 -4.6244834617 -0.300307495 1
13.5761916637 -32.8258740902 -4.1420537348 -0.8781936325 1
16.8182556629 -32.8258740902 -2.9465360203 -1.3720473624 1
20.0603196621 -32.8258740902 0 -0 0
23.3023836613 -32.8258740902 0 -0 0
26.5444476604 -32.8258740902 0 -0 0
29.7865116596 -32.8258740902 0 -0 0
33.0285756588 -32.8258740902 0 -0 0
36.270639658 -32.8258740902 0 -0 0
39.5127036572 -32.8258740902 0 -0 0
42.7547676563 -32.8258740902 0 -0 0
-35.0547683239 -36.0679380894 0 -0 0
-31.8127043247 -36.0679380894 0 -0 0
-28.5706403255 -36.0679380894 0 -0 0
-25.3285763264 -36.0679380894 0 -0 0
-22.0865123272 -36.0679380894 0 -0 0
-18.844448328 -36.0679380894 0 -0 0
-15.6023843288 -36.0679380894 0 -0 0
-12.3603203297 -36.0679380894 0 -0 0
-9.1182563305 -36.0679380894 0 -0 0
-5.8761923313 -36.0679380894 0 -0 0
-2.6341283321 -36.0679380894 0 -0 0
0.607935667 -36.0679380894 0 -0 0
3.8499996662 -36.0679380894 0 -0 0
7.0920636654 -36.0679380894 0 -0 0
10.3341276646 -36.0679380894 0 -0 0
13.5761916637 -36.0679380894 0 -0 0
16.8182556629 -36.0679380894 0 -0 0
20.0603196621 -36.0679380894 0 -0 0
23.3023836613 -36.0679380894 0 -0 0
26.5444476604 -36.0679380894 0 -0 0
29.7865116596 -36.0679380894 0 -0 0
33.0285756588 -36.0679380894 0 -0 0
36.270639658 -36.0679380894 0 -0 0
39.5127036572 -36.0679380894 0 -0 0
42.7547676563 -36.0679380894 0 -0 0
-35.0547683239 -39.3100020885 0 -0 0
-31.8127043247 -39.3100020885 0 -0 0
-28.5706403255 -39.3100020885 0 -0 0
-25.3285763264 -39.3100020885 0 -0 0
-22.0865123272 -39.3100020885 0 -0 0
-18.844448328 -39.3100020885 0 -0 0
-15.6023843288 -39.3100020885 0 -0 0
-12.3603203297 -39.3100020885 0 -0 0
-9.1182563305 -39.3100020885 0 -0 0
-5.8761923313 -39.3100020885 0 -0 0
-2.6341283321 -39.3100020885 0 -0 0
0.607935667 -39.3100020885 0 -0 0
3.8499996662 -39.3100020885 0 -0 0
7.0920636654 -39.3100020885 0 -0 0
10.3341276646 -39.3100020885 0 -0 0
13.5761916637 -39.3100020885 0 -0 0
16.8182556629 -39.3100020885 0 -0 0
20.0603196621 -39.3100020885 0 -0 0
23.3023836613 -39.3100020885 0 -0 0
26.5444476604 -39.3100020885 0 -0 0
29.7865116596 -39.3100020885 0 -0 0
33.0285756588 -39.3100020885 0 -0 0
36.270639658 -39.3100020885 0 -0 0
39.5127036572 -39.3100020885 0 -0 0
42.7547676563 -39.3100020885 0 -0 0
-35.0547683239 -42.5520660877 0 -0 0
-31.8127043247 -42.5520660877 0 -0 0
-28.5706403255 -42.5520660877 0 -0 0
-25.3285763264 -42.5520660877 0 -0 0
-22.0865123272 -42.5520660877 0 -0 0
-18.844448328 -42.5520660877 0 -0 0
-15.6023843288 -42.5520660877 0 -0 0
-12.3603203297 -42.5520660877 0 -0 0
-9.1182563305 -42.5520660877 0 -0 0
-5.8761923313 -42.5520660877 0 -0 0
-2.6341283321 -42.5520660877 0 -0 0
0.607935667 -42.5520660877 0 -0 0
3.8499996662 -42.5520660877 0 -0 0
7.0920636654 -42.5520660877 0 -0 0
10.3341276646 -42.5520660877 0 -0 0
13.5761916637 -42.5520660877 0 -0 0
16.8182556629 -42.5520660877 0 -0 0
20.0603196621 -42.5520660877 0 -0 0
23.3023836613 -42.5520660877 0 -0 0
26.5444476604 -42.5520660877 0 -0 0
29.7865116596 -42.5520660877 0 -0 0
33.0285756588 -42.5520660877 0 -0 0
36.270639658 -42.5520660877 0 -0 0
39.5127036572 -42.5520660877 0 -0 0
42.7547676563 -42.5520660877 0 -0 0
