TITLE = "B00090"
VARIABLES = "x", "y", "Vx", "Vy", "isValid"
ZONE T="Frame 0", I=25, J=25, F=POINT
-35.0547683239 35.2574698925 0 -0 0
-31.8127043247 35.2574698925 0 -0 0
-28.5706403255 35.2574698925 0 -0 0
-25.3285763264 35.2574698925 0 -0 0
-22.0865123272 35.2574698925 0 -0 0
-18.844448328 35.2574698925 0 -0 0
-15.6023843288 35.2574698925 0 -0 0
-12.3603203297 35.2574698925 0 -0 0
-9.1182563305 35.2574698925 0 -0 0
-5.8761923313 35.2574698925 0 -0 0
-2.6341283321 35.2574698925 0 -0 0
0.607935667 35.2574698925 0 -0 0
3.8499996662 35.2574698925 0 -0 0
7.0920636654 35.2574698925 0 -0 0
10.3341276646 35.2574698925 0 -0 0
13.5761916637 35.2574698925 0 -0 0
16.8182556629 35.2574698925 0 -0 0
20.0603196621 35.2574698925 0 -0 0
23.3023836613 35.2574698925 0 -0 0
26.5444476604 35.2574698925 0 -0 0
29.7865116596 35.2574698925 0 -0 0
33.0285756588 35.2574698925 0 -0 0
36.270639658 35.2574698925 0 -0 0
39.5127036572 35.2574698925 0 -0 0
42.7547676563 35.2574698925 0 -0 0
-35.0547683239 32.0154058933 0 -0 0
-31.8127043247 32.0154058933 0 -0 0
-28.5706403255 32.0154058933 0 -0 0
-25.3285763264 32.0154058933 0 -0 0
-22.0865123272 32.0154058933 0 -0 0
-18.844448328 32.0154058933 0 -0 0
-15.6023843288 32.0154058933 0 -0 0
-12.3603203297 32.0154058933 0 -0 0
-9.1182563305 32.0154058933 0 -0 0
-5.8761923313 32.0154058933 0 -0 0
-2.6341283321 32.0154058933 0 -0 0
0.607935667 32.0154058933 0 -0 0
3.8499996662 32.0154058933 0 -0 0
7.0920636654 32.0154058933 0 -0 0
10.3341276646 32.0154058933 0 -0 0
13.5761916637 32.0154058933 0 -0 0
16.8182556629 32.0154058933 0 -0 0
20.0603196621 32.0154058933 0 -0 0
23.3023836613 32.0154058933 0 -0 0
26.5444476604 32.0154058933 0 -0 0
29.7865116596 32.0154058933 0 -0 0
33.0285756588 32.0154058933 0 -0 0
36.270639658 32.0154058933 0 -0 0
39.5127036572 32.0154058933 0 -0 0
42.7547676563 32.0154058933 0 -0 0
-35.0547683239 28.7733418941 0 -0 0
-31.8127043247 28.7733418941 0 -0 0
-28.5706403255 28.7733418941 0 -0 0
-25.3285763264 28.7733418941 0 -0 0
-22.0865123272 28.7733418941 0 -0 0
-18.844448328 28.7733418941 0 -0 0
-15.6023843288 28.7733418941 0 -0 0
-12.3603203297 28.7733418941 0 -0 0
-9.1182563305 28.7733418941 0 -0 0
-5.8761923313 28.7733418941 0 -0 0
-2.6341283321 28.7733418941 0 -0 0
0.607935667 28.7733418941 0 -0 0
3.8499996662 28.7733418941 0 -0 0
7.0920636654 28.7733418941 0 -0 0
10.3341276646 28.7733418941 0 -0 0
13.5761916637 28.7733418941 0 -0 0
16.8182556629 28.7733418941 0 -0 0
20.0603196621 28.7733418941 0 -0 0
23.3023836613 28.7733418941 0 -0 0
26.5444476604 28.7733418941 0 -0 0
29.7865116596 28.7733418941 0 -0 0
33.0285756588 28.7733418941 0 -0 0
36.270639658 28.7733418941 0 -0 0
39.5127036572 28.7733418941 0 -0 0
42.7547676563 28.7733418941 0 -0 0
-35.0547683239 25.531277895 0 -0 0
-31.8127043247 25.531277895 0 -0 0
-28.5706403255 25.531277895 0 -0 0
-25.3285763264 25.531277895 0 -0 0
-22.0865123272 25.531277895 0 -0 0
-18.844448328 25.531277895 0 -0 0
-15.6023843288 25.531277895 0 -0 0
-12.3603203297 25.531277895 0 -0 0
-9.1182563305 25.531277895 4.0679761999 -0.5603250758 1
-5.8761923313 25.531277895 4.9626957279 -1.9652657859 1
-2.6341283321 25.531277895 4.5686096315 -3.4585332932 1
0.607935667 25.531277895 2.3858480872 -4.225065092 1
3.8499996662 25.531277895 0.0096105723 -3.2550789865 1
7.0920636654 25.531277895 -1.7610273391 -1.7816972957 1
10.3341276646 25.531277895 -1.434073084 -0.9231055799 1
13.5761916637 25.531277895 -0.6032568582 -1.1627922459 1
16.8182556629 25.531277895 0.2999810971 -1.0341513791 1
20.0603196621 25.531277895 0 -0 0
23.3023836613 25.531277895 0 -0 0
26.5444476604 25.531277895 0 -0 0
29.7865116596 25.531277895 0 -0 0
33.0285756588 25.531277895 0 -0 0
36.270639658 25.531277895 0 -0 0
39.5127036572 25.531277895 0 -0 0
42.7547676563 25.531277895 0 -0 0
-35.0547683239 22.2892138958 0 -0 0
-31.8127043247 22.2892138958 0 -0 0
-28.5706403255 22.2892138958 0 -0 0
-25.3285763264 22.2892138958 0 -0 0
-22.0865123272 22.2892138958 0 -0 0
-18.844448328 22.2892138958 0 -0 0
-15.6023843288 22.2892138958 1.5615172842 3.1743521129 1
-12.3603203297 22.2892138958 2.0258328318 2.6649466992 1
-9.1182563305 22.2892138958 3.1028534538 1.0789574208 1
-5.8761923313 22.2892138958 4.5109075502 -0.8917284276 1
-2.6341283321 22.2892138958 4.7414238987 -3.3793463173 1
0.607935667 22.2892138958 3.258877099 -5.5472840815 1
3.8499996662 22.2892138958 0.4364543819 -5.8683859704 1
7.0920636654 22.2892138958 -1.6862861385 -4.3965855432 1
10.3341276646 22.2892138958 -1.7207347074 -2.9491701512 1
13.5761916637 22.2892138958 -0.6472192399 -2.0312188506 1
16.8182556629 22.2892138958 0.5480681693 -1.4800166874 1
20.0603196621 22.2892138958 1.369512268 -1.0151922187 1
23.3023836613 22.2892138958 0 -0 0
26.5444476604 22.2892138958 0 -0 0
29.7865116596 22.2892138958 0 -0 0
33.0285756588 22.2892138958 0 -0 0
36.270639658 22.2892138958 0 -0 0
39.5127036572 22.2892138958 0 -0 0
42.7547676563 22.2892138958 0 -0 0
-35.0547683239 19.0471498966 0 -0 0
-31.8127043247 19.0471498966 0 -0 0
-28.5706403255 19.0471498966 0 -0 0
-25.3285763264 19.0471498966 0 -0 0
-22.0865123272 19.0471498966 0 -0 0
-18.844448328 19.0471498966 3.7340530018 -0.6446140197 1
-15.6023843288 19.0471498966 3.5015227086 0.5169010546 1
-12.3603203297 19.0471498966 3.3134314482 2.1618891365 1
-9.1182563305 19.0471498966 3.5487854911 2.6377672024 1
-5.8761923313 19.0471498966 4.1049425016 0.8444935747 1
-2.6341283321 19.0471498966 3.9021047578 -3.1552585889 1
0.607935667 19.0471498966 2.6870566111 -6.7006517758 1
3.8499996662 19.0471498966 0.010778613 -6.9882255622 1
7.0920636654 19.0471498966 -1.6564495633 -4.942017619 1
10.3341276646 19.0471498966 -1.623287111 -3.5150282155 1
13.5761916637 19.0471498966 -0.3467127659 -3.0117935645 1
16.8182556629 19.0471498966 1.2211889418 -2.800146398 1
20.0603196621 19.0471498966 2.2780105593 -2.3476785517 1
23.3023836613 19.0471498966 2.7823346124 -2.6090254643 1
26.5444476604 19.0471498966 0 -0 0
29.7865116596 19.0471498966 0 -0 0
33.0285756588 19.0471498966 0 -0 0
36.270639658 19.0471498966 0 -0 0
39.5127036572 19.0471498966 0 -0 0
42.7547676563 19.0471498966 0 -0 0
-35.0547683239 15.8050858974 0 -0 0
-31.8127043247 15.8050858974 0 -0 0
-28.5706403255 15.8050858974 0 -0 0
-25.3285763264 15.8050858974 0 -0 0
-22.0865123272 15.8050858974 2.6343682556 -0.7981534475 1
-18.844448328 15.8050858974 3.771327283 -2.4746657646 1
-15.6023843288 15.8050858974 4.9982211684 -2.7248934079 1
-12.3603203297 15.8050858974 5.0717902351 -0.5591502245 1
-9.1182563305 15.8050858974 4.2453820798 1.518521981 1
-5.8761923313 15.8050858974 3.3240811996 0.5091069453 1
-2.6341283321 15.8050858974 1.908804379 -3.4272338152 1
0.607935667 15.8050858974 0.8187880771 -6.6190305538 1
3.8499996662 15.8050858974 -0.8921406522 -4.7707858231 1
7.0920636654 15.8050858974 -1.2604514272 -1.4174133532 1
10.3341276646 15.8050858974 -0.4922820152 -1.4852499242 1
13.5761916637 15.8050858974 1.0846763292 -3.3372862755 1
16.8182556629 15.8050858974 2.9252190048 -4.9042560054 1
20.0603196621 15.8050858974 3.3797201199 -4.0857472235 1
23.3023836613 15.8050858974 3.2643672873 -4.0417607999 1
26.5444476604 15.8050858974 2.660535949 -4.4770895845 1
29.7865116596 15.8050858974 0 -0 0
33.0285756588 15.8050858974 0 -0 0
36.270639658 15.8050858974 0 -0 0
39.5127036572 15.8050858974 0 -0 0
42.7547676563 15.8050858974 0 -0 0
-35.0547683239 12.5630218983 0 -0 0
-31.8127043247 12.5630218983 0 -0 0
-28.5706403255 12.5630218983 0 -0 0
-25.3285763264 12.5630218983 0 -0 0
-22.0865123272 12.5630218983 0.2534863575 0.8797731599 1
-18.844448328 12.5630218983 1.2096223473 -1.7733589005 1
-15.6023843288 12.5630218983 3.4194032843 -3.992615115 1
-12.3603203297 12.5630218983 4.8228259118 -3.6667682275 1
-9.1182563305 12.5630218983 4.4389013287 -2.8442871134 1
-5.8761923313 12.5630218983 3.0421968825 -3.6188441948 1
-2.6341283321 12.5630218983 1.1168232039 -5.6481733493 1
0.607935667 12.5630218983 0.3967753315 -5.7840376197 1
3.8499996662 12.5630218983 -0.4770201945 -1.8304124131 1
7.0920636654 12.5630218983 -0.0031004616 1.5885936682 1
10.3341276646 12.5630218983 1.213935948 0.2120745825 1
13.5761916637 12.5630218983 3.4047555356 -3.1671665274 1
16.8182556629 12.5630218983 5.4436507763 -6.0470189374 1
20.0603196621 12.5630218983 5.3991084798 -6.1427208635 1
23.3023836613 12.5630218983 4.0799369781 -6.1682439135 1
26.5444476604 12.5630218983 3.0131876249 -5.8621261352 1
29.7865116596 12.5630218983 3.0560007068 -4.3954161267 1
33.0285756588 12.5630218983 0 -0 0
36.270639658 12.5630218983 0 -0 0
39.5127036572 12.5630218983 0 -0 0
42.7547676563 12.5630218983 0 -0 0
-35.0547683239 9.3209578991 0 -0 0
-31.8127043247 9.3209578991 0 -0 0
-28.5706403255 9.3209578991 0 -0 0
-25.3285763264 9.3209578991 -0.1319254158 2.6248637653 1
-22.0865123272 9.3209578991 -1.4200844719 2.8081055557 1
-18.844448328 9.3209578991 -1.7772731091 1.3196586831 1
-15.6023843288 9.3209578991 0.2976142592 -2.0531862464 1
-12.3603203297 9.3209578991 2.4370294565 -4.7647267785 1
-9.1182563305 9.3209578991 2.5401606342 -6.879355397 1
-5.8761923313 9.3209578991 1.6848582608 -7.9907400445 1
-2.6341283321 9.3209578991 0.7169044429 -7.8937796294 1
0.607935667 9.3209578991 0.9230228482 -5.5389595755 1
3.8499996662 9.3209578991 1.3568920513 -1.0455168811 1
7.0920636654 9.3209578991 2.3271841737 1.5322657191 1
10.3341276646 9.3209578991 4.114441255 -0.2317337358 1
13.5761916637 9.3209578991 6.4030330253 -3.4582772475 1
16.8182556629 9.3209578991 8.3780895413 -6.4478005696 1
20.0603196621 9.3209578991 8.0771772212 -7.410135195 1
23.3023836613 9.3209578991 5.8254493947 -8.0010845339 1
26.5444476604 9.3209578991 4.1487525918 -7.5255635128 1
29.7865116596 9.3209578991 4.080161622 -5.3633623206 1
33.0285756588 9.3209578991 0 -0 0
36.270639658 9.3209578991 0 -0 0
39.5127036572 9.3209578991 0 -0 0
42.7547676563 9.3209578991 0 -0 0
-35.0547683239 6.0788938999 0 -0 0
-31.8127043247 6.0788938999 0 -0 0
-28.5706403255 6.0788938999 0 -0 0
-25.3285763264 6.0788938999 0.2364583723 3.0718767504 1
-22.0865123272 6.0788938999 -2.0293057541 4.3175238727 1
-18.844448328 6.0788938999 -3.465742732 3.7921651186 1
-15.6023843288 6.0788938999 -2.2219917976 0.526956096 1
-12.3603203297 6.0788938999 -0.3115298394 -3.7905654366 1
-9.1182563305 6.0788938999 0.0153069183 -7.3051129624 1
-5.8761923313 6.0788938999 -0.0762511732 -9.0045821352 1
-2.6341283321 6.0788938999 -0.1715431345 -9.0066069497 1
0.607935667 6.0788938999 0.9272441305 -6.9460794673 1
3.8499996662 6.0788938999 2.6075462567 -4.2912085303 1
7.0920636654 6.0788938999 4.6975815008 -2.5407916904 1
10.3341276646 6.0788938999 7.1049914775 -2.3329148578 1
13.5761916637 6.0788938999 8.973160975 -3.7086760912 1
16.8182556629 6.0788938999 10.2573384519 -6.0931156248 1
20.0603196621 6.0788938999 9.8115072629 -8.2690877299 1
23.3023836613 6.0788938999 7.1453893356 -9.0128999984 1
26.5444476604 6.0788938999 5.0041494727 -8.0918485213 1
29.7865116596 6.0788938999 4.220969266 -5.9818359726 1
33.0285756588 6.0788938999 4.8618559784 -4.6663762283 1
36.270639658 6.0788938999 0 -0 0
39.5127036572 6.0788938999 0 -0 0
42.7547676563 6.0788938999 0 -0 0
-35.0547683239 2.8368299007 0 -0 0
-31.8127043247 2.8368299007 0 -0 0
-28.5706403255 2.8368299007 2.9343312741 2.3884843317 1
-25.3285763264 2.8368299007 0.6844092041 3.2082757578 1
-22.0865123272 2.8368299007 -1.5040458856 4.5490426644 1
-18.844448328 2.8368299007 -2.8568004431 4.6132615325 1
-15.6023843288 2.8368299007 -1.9717239962 1.9458574887 1
-12.3603203297 2.8368299007 -1.1183905782 -1.6761258329 1
-9.1182563305 2.8368299007 -1.6818608952 -4.2033392487 1
-5.8761923313 2.8368299007 -1.6855324945 -5.5967111751 1
-2.6341283321 2.8368299007 -1.0721242001 -6.4369639167 1
0.607935667 2.8368299007 0.6605743803 -6.4007249903 1
3.8499996662 2.8368299007 3.082393346 -5.5144498387 1
7.0920636654 2.8368299007 5.5955728586 -3.9310418516 1
10.3341276646 2.8368299007 8.178693318 -2.2109190271 1
13.5761916637 2.8368299007 9.5157074032 -2.8325980819 1
16.8182556629 2.8368299007 10.2872136755 -5.5052901647 1
20.0603196621 2.8368299007 9.7178881239 -8.1139252197 1
23.3023836613 2.8368299007 7.1430553337 -8.5395922029 1
26.5444476604 2.8368299007 4.6522834467 -7.2959852942 1
29.7865116596 2.8368299007 3.508056404 -5.8035254783 1
33.0285756588 2.8368299007 3.8110584559 -4.7691873489 1
36.270639658 2.8368299007 0 -0 0
39.5127036572 2.8368299007 0 -0 0
42.7547676563 2.8368299007 0 -0 0
-35.0547683239 -0.4052340984 0 -0 0
-31.8127043247 -0.4052340984 0 -0 0
-28.5706403255 -0.4052340984 4.4648021065 3.4337025934 1
-25.3285763264 -0.4052340984 2.8044019507 4.3144854431 1
-22.0865123272 -0.4052340984 1.1021110663 5.0827150546 1
-18.844448328 -0.4052340984 0.7519414188 4.7910119268 1
-15.6023843288 -0.4052340984 1.0844057903 2.9474182911 1
-12.3603203297 -0.4052340984 0.5436307351 0.5808233791 1
-9.1182563305 -0.4052340984 -1.5680627553 -1.2232759561 1
-5.8761923313 -0.4052340984 -2.0607012493 -2.44974252 1
-2.6341283321 -0.4052340984 -1.1096109721 -3.7355002037 1
0.607935667 -0.4052340984 1.1072405109 -4.4345253017 1
3.8499996662 -0.4052340984 3.6570653621 -4.2638282429 1
7.0920636654 -0.4052340984 6.3328197279 -2.7346823264 1
10.3341276646 -0.4052340984 8.2126332677 -0.3655045001 1
13.5761916637 -0.4052340984 8.8909062813 -0.5035373088 1
16.8182556629 -0.4052340984 8.9983404164 -3.3305699059 1
20.0603196621 -0.4052340984 8.3007516504 -6.3200422 1
23.3023836613 -0.4052340984 6.3307133893 -7.2520613723 1
26.5444476604 -0.4052340984 4.0915571671 -6.4694823295 1
29.7865116596 -0.4052340984 3.0038621854 -5.5153798162 1
33.0285756588 -0.4052340984 3.1001731259 -4.8257698339 1
36.270639658 -0.4052340984 0 -0 0
39.5127036572 -0.4052340984 0 -0 0
42.7547676563 -0.4052340984 0 -0 0
-35.0547683239 -3.6472980976 0 -0 0
-31.8127043247 -3.6472980976 0 -0 0
-28.5706403255 -3.6472980976 7.9799039955 4.7705690297 1
-25.3285763264 -3.6472980976 7.581289694 6.2810217956 1
-22.0865123272 -3.6472980976 6.6692795301 6.4725657482 1
-18.844448328 -3.6472980976 5.7732891336 5.3432397826 1
-15.6023843288 -3.6472980976 4.2663811518 3.8418757346 1
-12.3603203297 -3.6472980976 2.4620263747 2.3212945178 1
-9.1182563305 -3.6472980976 0.3917489242 0.0111028301 1
-5.8761923313 -3.6472980976 -0.0267532909 -1.5534257255 1
-2.6341283321 -3.6472980976 0.9309372431 -1.838135755 1
0.607935667 -3.6472980976 2.8036009019 -1.235561849 1
3.8499996662 -3.6472980976 4.761229097 -0.4395827521 1
7.0920636654 -3.6472980976 6.9493368039 -0.0596667106 1
10.3341276646 -3.6472980976 8.2229481669 0.7316123533 1
13.5761916637 -3.6472980976 8.4190997351 0.3268625029 1
16.8182556629 -3.6472980976 8.1573618093 -1.780564565 1
20.0603196621 -3.6472980976 7.7085293293 -4.407533914 1
23.3023836613 -3.6472980976 6.7129908857 -6.2911265441 1
26.5444476604 -3.6472980976 5.0517878695 -6.9704497075 1
29.7865116596 -3.6472980976 3.8478855629 -6.3595493329 1
33.0285756588 -3.6472980976 3.4347300977 -5.6182896714 1
36.270639658 -3.6472980976 0 -0 0
39.5127036572 -3.6472980976 0 -0 0
42.7547676563 -3.6472980976 0 -0 0
-35.0547683239 -6.8893620968 0 -0 0
-31.8127043247 -6.8893620968 0 -0 0
-28.5706403255 -6.8893620968 12.7141130205 4.3995940806 1
-25.3285763264 -6.8893620968 13.6699607513 6.6114832433 1
-22.0865123272 -6.8893620968 13.1365909057 7.5133095502 1
-18.844448328 -6.8893620968 10.3800725277 6.1244872667 1
-15.6023843288 -6.8893620968 6.4404229498 4.5220660718 1
-12.3603203297 -6.8893620968 3.5830406669 3.0254880863 1
-9.1182563305 -6.8893620968 2.359073342 0.3737258556 1
-5.8761923313 -6.8893620968 2.0788573983 -1.2033162397 1
-2.6341283321 -6.8893620968 2.3753014485 -0.9545685589 1
0.607935667 -6.8893620968 3.630387087 0.21149914 1
3.8499996662 -6.8893620968 5.4505772966 1.1258605164 1
7.0920636654 -6.8893620968 7.8636960667 0.540742823 1
10.3341276646 -6.8893620968 9.0264311703 -0.4890935211 1
13.5761916637 -6.8893620968 8.7463895974 -1.4006871955 1
16.8182556629 -6.8893620968 7.9755337054 -2.3677714996 1
20.0603196621 -6.8893620968 8.1583859922 -3.9394907571 1
23.3023836613 -6.8893620968 8.0062742912 -6.2645666297 1
26.5444476604 -6.8893620968 6.5535492715 -8.1149560453 1
29.7865116596 -6.8893620968 4.6685652986 -7.4647931098 1
33.0285756588 -6.8893620968 3.6649179347 -6.307230251 1
36.270639658 -6.8893620968 0 -0 0
39.5127036572 -6.8893620968 0 -0 0
42.7547676563 -6.8893620968 0 -0 0
-35.0547683239 -10.131426096 0 -0 0
-31.8127043247 -10.131426096 0 -0 0
-28.5706403255 -10.131426096 15.2131146041 5.1168736094 1
-25.3285763264 -10.131426096 15.9034223714 9.6980035152 1
-22.0865123272 -10.131426096 15.0839757616 10.4999901003 1
-18.844448328 -10.131426096 11.0114209324 8.2059941949 1
-15.6023843288 -10.131426096 6.4545598147 4.9099931812 1
-12.3603203297 -10.131426096 3.5346893881 2.9175171006 1
-9.1182563305 -10.131426096 3.2180257259 0.6481360074 1
-5.8761923313 -10.131426096 2.9709228673 -0.4813917679 1
-2.6341283321 -10.131426096 3.1897224058 -0.1950070053 1
0.607935667 -10.131426096 4.2220535351 0.0313846583 1
3.8499996662 -10.131426096 5.8091892825 -0.3563641503 1
7.0920636654 -10.131426096 7.7193273337 -1.5352116039 1
10.3341276646 -10.131426096 8.7761295515 -3.1354748284 1
13.5761916637 -10.131426096 8.6590568645 -4.1045560174 1
16.8182556629 -10.131426096 8.1881132649 -4.6849564531 1
20.0603196621 -10.131426096 8.6838371402 -5.4800593934 1
23.3023836613 -10.131426096 8.2490316188 -6.362585045 1
26.5444476604 -10.131426096 6.427609189 -7.2203117006 1
29.7865116596 -10.131426096 3.9437677476 -6.2053741689 1
33.0285756588 -10.131426096 2.8549051611 -5.3999146615 1
36.270639658 -10.131426096 0 -0 0
39.5127036572 -10.131426096 0 -0 0
42.7547676563 -10.131426096 0 -0 0
-35.0547683239 -13.3734900951 0 -0 0
-31.8127043247 -13.3734900951 0 -0 0
-28.5706403255 -13.3734900951 0 -0 0
-25.3285763264 -13.3734900951 12.0580078914 12.7571407823 1
-22.0865123272 -13.3734900951 10.5811239901 12.2490131818 1
-18.844448328 -13.3734900951 8.080464148 8.751791317 1
-15.6023843288 -13.3734900951 5.6580286947 4.5239064006 1
-12.3603203297 -13.3734900951 3.784658872 2.8410448738 1
-9.1182563305 -13.3734900951 2.5051515124 1.5381037432 1
-5.8761923313 -13.3734900951 1.9832305045 0.4894349028 1
-2.6341283321 -13.3734900951 3.3495483905 0.1584413223 1
0.607935667 -13.3734900951 5.405088114 -0.9900241756 1
3.8499996662 -13.3734900951 6.6280163099 -2.9141311373 1
7.0920636654 -13.3734900951 6.972459425 -4.1210718734 1
10.3341276646 -13.3734900951 7.2787287775 -4.8632008224 1
13.5761916637 -13.3734900951 7.6425733962 -5.0651387827 1
16.8182556629 -13.3734900951 8.12116757 -5.7571232269 1
20.0603196621 -13.3734900951 8.6326515437 -6.6456484408 1
23.3023836613 -13.3734900951 7.3843180548 -6.4544909723 1
26.5444476604 -13.3734900951 5.0608702466 -5.6885977781 1
29.7865116596 -13.3734900951 2.4857241929 -3.9210554639 1
33.0285756588 -13.3734900951 1.5918022413 -3.3890455594 1
36.270639658 -13.3734900951 0 -0 0
39.5127036572 -13.3734900951 0 -0 0
42.7547676563 -13.3734900951 0 -0 0
-35.0547683239 -16.6155540943 0 -0 0
-31.8127043247 -16.6155540943 0 -0 0
-28.5706403255 -16.6155540943 0 -0 0
-25.3285763264 -16.6155540943 5.9679762892 16.0901594276 1
-22.0865123272 -16.6155540943 4.6383443528 12.1532146347 1
-18.844448328 -16.6155540943 5.0542504981 6.9280650795 1
-15.6023843288 -16.6155540943 5.8713341197 2.5008701438 1
-12.3603203297 -16.6155540943 5.0514871365 2.0116370884 1
-9.1182563305 -16.6155540943 1.9814783424 1.6824813834 1
-5.8761923313 -16.6155540943 -0.082518656 0.5081128432 1
-2.6341283321 -16.6155540943 1.8341270389 -0.1908694926 1
0.607935667 -16.6155540943 5.1993299995 -1.9594552385 1
3.8499996662 -16.6155540943 6.5266584301 -4.337751788 1
7.0920636654 -16.6155540943 5.9377749696 -5.2239750058 1
10.3341276646 -16.6155540943 5.4748847332 -4.5087474662 1
13.5761916637 -16.6155540943 5.8989115744 -3.4519108272 1
16.8182556629 -16.6155540943 6.9338538872 -3.7539527075 1
20.0603196621 -16.6155540943 7.3249202743 -5.2387815753 1
23.3023836613 -16.6155540943 5.8452011495 -5.4264431741 1
26.5444476604 -16.6155540943 3.809320787 -4.3236282084 1
29.7865116596 -16.6155540943 1.5808990106 -2.3373950543 1
33.0285756588 -16.6155540943 0 -0 0
36.270639658 -16.6155540943 0 -0 0
39.5127036572 -16.6155540943 0 -0 0
42.7547676563 -16.6155540943 0 -0 0
-35.0547683239 -19.8576180935 0 -0 0
-31.8127043247 -19.8576180935 0 -0 0
-28.5706403255 -19.8576180935 0 -0 0
-25.3285763264 -19.8576180935 0 -0 0
-22.0865123272 -19.8576180935 0.988569878 7.2728342906 1
-18.844448328 -19.8576180935 3.3845125232 1.434648432 1
-15.6023843288 -19.8576180935 6.3724361633 -1.1433102751 1
-12.3603203297 -19.8576180935 6.4615962415 -0.234217972 1
-9.1182563305 -19.8576180935 2.7305919353 0.1797752466 1
-5.8761923313 -19.8576180935 -0.7383972635 -0.6947997395 1
-2.6341283321 -19.8576180935 -0.2181595562 -0.9927682129 1
0.607935667 -19.8576180935 2.948152611 -2.1900552246 1
3.8499996662 -19.8576180935 4.5828280205 -3.8467560026 1
7.0920636654 -19.8576180935 4.3288306472 -4.3618363923 1
10.3341276646 -19.8576180935 3.764520935 -2.6663238509 1
13.5761916637 -19.8576180935 4.0297797917 -0.5586993137 1
16.8182556629 -19.8576180935 4.7930947139 -0.3510607124 1
20.0603196621 -19.8576180935 5.1577769162 -2.2137038265 1
23.3023836613 -19.8576180935 4.0611861568 -4.0305464192 1
26.5444476604 -19.8576180935 3.0386674973 -4.0720071087 1
29.7865116596 -19.8576180935 1.4867048256 -2.583825491 1
33.0285756588 -19.8576180935 0 -0 0
36.270639658 -19.8576180935 0 -0 0
39.5127036572 -19.8576180935 0 -0 0
42.7547676563 -19.8576180935 0 -0 0
-35.0547683239 -23.0996820927 0 -0 0
-31.8127043247 -23.0996820927 0 -0 0
-28.5706403255 -23.0996820927 0 -0 0
-25.3285763264 -23.0996820927 0 -0 0
-22.0865123272 -23.0996820927 0.4979168331 0.8722072046 1
-18.844448328 -23.0996820927 3.3645198197 -3.0079103048 1
-15.6023843288 -23.0996820927 6.3169992414 -3.635501661 1
-12.3603203297 -23.0996820927 6.6609296611 -2.1197924089 1
-9.1182563305 -23.0996820927 3.4371945379 -1.722132542 1
-5.8761923313 -23.0996820927 -0.1051730708 -1.9869170498 1
-2.6341283321 -23.0996820927 -0.9843493505 -1.6075786445 1
0.607935667 -23.0996820927 0.7448451323 -2.0314250761 1
3.8499996662 -23.0996820927 2.1452167242 -2.7982912742 1
7.0920636654 -23.0996820927 2.3900523099 -2.6691838335 1
10.3341276646 -23.0996820927 1.9073958255 -0.2945846425 1
13.5761916637 -23.0996820927 1.7256581529 2.2158187703 1
16.8182556629 -23.0996820927 2.1956808333 2.588303574 1
20.0603196621 -23.0996820927 2.7287111465 0.1521351864 1
23.3023836613 -23.0996820927 2.385201934 -3.0246332921 1
26.5444476604 -23.0996820927 2.184602175 -4.2741446518 1
29.7865116596 -23.0996820927 0 -0 0
33.0285756588 -23.0996820927 0 -0 0
36.270639658 -23.0996820927 0 -0 0
39.5127036572 -23.0996820927 0 -0 0
42.7547676563 -23.0996820927 0 -0 0
-35.0547683239 -26.3417460918 0 -0 0
-31.8127043247 -26.3417460918 0 -0 0
-28.5706403255 -26.3417460918 0 -0 0
-25.3285763264 -26.3417460918 0 -0 0
-22.0865123272 -26.3417460918 0 -0 0
-18.844448328 -26.3417460918 3.1523255366 -4.8201072375 1
-15.6023843288 -26.3417460918 5.0830610787 -3.5400277002 1
-12.3603203297 -26.3417460918 5.1129791779 -2.3090043223 1
-9.1182563305 -26.3417460918 2.9860579483 -2.4976772716 1
-5.8761923313 -26.3417460918 0.7739559174 -2.7041307555 1
-2.6341283321 -26.3417460918 -0.1532860524 -2.2373244988 1
0.607935667 -26.3417460918 0.2924181989 -1.9651794308 1
3.8499996662 -26.3417460918 0.741980847 -1.8714549146 1
7.0920636654 -26.3417460918 0.7136729977 -1.0827417195 1
10.3341276646 -26.3417460918 0.2243110891 1.1036977649 1
13.5761916637 -26.3417460918 -0.2237893355 2.955493696 1
16.8182556629 -26.3417460918 -0.0049706155 2.5626368003 1
20.0603196621 -26.3417460918 0.5497183886 0.1326510171 1
23.3023836613 -26.3417460918 0.9449982455 -2.9049608954 1
26.5444476604 -26.3417460918 0 -0 0
29.7865116596 -26.3417460918 0 -0 0
33.0285756588 -26.3417460918 0 -0 0
36.270639658 -26.3417460918 0 -0 0
39.5127036572 -26.3417460918 0 -0 0
42.7547676563 -26.3417460918 0 -0 0
-35.0547683239 -29.583810091 0 -0 0
-31.8127043247 -29.583810091 0 -0 0
-28.5706403255 -29.583810091 0 -0 0
-25.3285763264 -29.583810091 0 -0 0
-22.0865123272 -29.583810091 0 -0 0
-18.844448328 -29.583810091 0 -0 0
-15.6023843288 -29.583810091 3.4271758426 -2.5106143751 1
-12.3603203297 -29.583810091 2.8095222616 -1.9201283642 1
-9.1182563305 -29.583810091 1.5912669004 -2.4361899103 1
-5.8761923313 -29.583810091 1.264110194 -2.7439020866 1
-2.6341283321 -29.583810091 1.462687856 -2.3186535932 1
0.607935667 -29.583810091 1.3747627154 -1.46126647 1
3.8499996662 -29.583810091 0.8557231278 -0.5606016913 1
7.0920636654 -29.583810091 0.320391045 0.3786578309 1
10.3341276646 -29.583810091 -0.1974890902 1.5246133333 1
13.5761916637 -29.583810091 -1.0477241433 1.8892203523 1
16.8182556629 -29.583810091 -1.2557649297 1.0095838206 1
20.0603196621 -29.583810091 -0.7933276043 -0.916207442 1
23.3023836613 -29.583810091 0 -0 0
26.5444476604 -29.583810091 0 -0 0
29.7865116596 -29.583810091 0 -0 0
33.0285756588 -29.583810091 0 -0 0
36.270639658 -29.583810091 0 -0 0
39.5127036572 -29.583810091 0 -0 0
42.7547676563 -29.583810091 0 -0 0
-35.0547683239 -32.8258740902 0 -0 0
-31.8127043247 -32.8258740902 0 -0 0
-28.5706403255 -32.8258740902 0 -0 0
-25.3285763264 -32.8258740902 0 -0 0
-22.0865123272 -32.8258740902 0 -0 0
-18.844448328 -32.8258740902 0 -0 0
-15.6023843288 -32.8258740902 0 -0 0
-12.3603203297 -32.8258740902 0 -0 0
-9.1182563305 -32.8258740902 0.9759059554 -2.5008970165 1
-5.8761923313 -32.8258740902 1.910847461 -2.3278315346 1
-2.6341283321 -32.8258740902 2.6285715975 -0.9430288371 1
0.607935667 -32.8258740902 2.3936121911 0.7971106198 1
3.8499996662 -32.8258740902 1.1313313805 1.9527969925 1
7.0920636654 -32.8258740902 0.5274740754 1.9486336827 1
10.3341276646 -32.8258740902 0.1309950421 1.4083487906 1
13.5761916637 -32.8258740902 -0.8390629442 0.5852643989 1
16.8182556629 -32.8258740902 -1.6647896192 -0.4977851114 1
20.0603196621 -32.8258740902 0 -0 0
23.3023836613 -32.8258740902 0 -0 0
26.5444476604 -32.8258740902 0 -0 0
29.7865116596 -32.8258740902 0 -0 0
33.0285756588 -32.8258740902 0 -0 0
36.270639658 -32.8258740902 0 -0 0
39.5127036572 -32.8258740902 0 -0 0
42.7547676563 -32.8258740902 0 -0 0
-35.0547683239 -36.0679380894 0 -0 0
-31.8127043247 -36.0679380894 0 -0 0
-28.5706403255 -36.0679380894 0 -0 0
-25.3285763264 -36.0679380894 0 -0 0
-22.0865123272 -36.0679380894 0 -0 0
-18.844448328 -36.0679380894 0 -0 0
-15.6023843288 -36.0679380894 0 -0 0
-12.3603203297 -36.0679380894 0 -0 0
-9.1182563305 -36.0679380894 0 -0 0
-5.8761923313 -36.0679380894 0 -0 0
-2.6341283321 -36.0679380894 0 -0 0
0.607935667 -36.0679380894 0 -0 0
3.8499996662 -36.0679380894 0 -0 0
7.0920636654 -36.0679380894 0 -0 0
10.3341276646 -36.0679380894 0 -0 0
13.5761916637 -36.0679380894 0 -0 0
16.8182556629 -36.0679380894 0 -0 0
20.0603196621 -36.0679380894 0 -0 0
23.3023836613 -36.0679380894 0 -0 0
26.5444476604 -36.0679380894 0 -0 0
29.7865116596 -36.0679380894 0 -0 0
33.0285756588 -36.0679380894 0 -0 0
36.270639658 -36.0679380894 0 -0 0
39.5127036572 -36.0679380894 0 -0 0
42.7547676563 -36.0679380894 0 -0 0
-35.0547683239 -39.3100020885 0 -0 0
-31.8127043247 -39.3100020885 0 -0 0
-28.5706403255 -39.3100020885 0 -0 0
-25.3285763264 -39.3100020885 0 -0 0
-22.0865123272 -39.3100020885 0 -0 0
-18.844448328 -39.3100020885 0 -0 0
-15.6023843288 -39.3100020885 0 -0 0
-12.3603203297 -39.3100020885 0 -0 0
-9.1182563305 -39.3100020885 0 -0 0
-5.8761923313 -39.3100020885 0 -0 0
-2.6341283321 -39.3100020885 0 -0 0
0.607935667 -39.3100020885 0 -0 0
3.8499996662 -39.3100020885 0 -0 0
7.0920636654 -39.3100020885 0 -0 0
10.3341276646 -39.3100020885 0 -0 0
13.5761916637 -39.3100020885 0 -0 0
16.8182556629 -39.3100020885 0 -0 0
20.0603196621 -39.3100020885 0 -0 0
23.3023836613 -39.3100020885 0 -0 0
26.5444476604 -39.3100020885 0 -0 0
29.7865116596 -39.3100020885 0 -0 0
33.0285756588 -39.3100020885 0 -0 0
36.270639658 -39.3100020885 0 -0 0
39.5127036572 -39.3100020885 0 -0 0
42.7547676563 -39.3100020885 0 -0 0
-35.0547683239 -42.5520660877 0 -0 0
-31.8127043247 -42.5520660877 0 -0 0
-28.5706403255 -42.5520660877 0 -0 0
-25.3285763264 -42.5520660877 0 -0 0
-22.0865123272 -42.5520660877 0 -0 0
-18.844448328 -42.5520660877 0 -0 0
-15.6023843288 -42.5520660877 0 -0 0
-12.3603203297 -42.5520660877 0 -0 0
-9.1182563305 -42.5520660877 0 -0 0
-5.8761923313 -42.5520660877 0 -0 0
-2.6341283321 -42.5520660877 0 -0 0
0.607935667 -42.5520660877 0 -0 0
3.8499996662 -42.5520660877 0 -0 0
7.0920636654 -42.5520660877 0 -0 0
10.3341276646 -42.5520660877 0 -0 0
13.5761916637 -42.5520660877 0 -0 0
16.8182556629 -42.5520660877 0 -0 0
20.0603196621 -42.5520660877 0 -0 0
23.3023836613 -42.5520660877 0 -0 0
26.5444476604 -42.5520660877 0 -0 0
29.7865116596 -42.5520660877 0 -0 0
33.0285756588 -42.5520660877 0 -0 0
36.270639658 -42.5520660877 0 -0 0
39.5127036572 -42.5520660877 0 -0 0
42.7547676563 -42.5520660877 0 -0 0
