TITLE = "B00090"
VARIABLES = "x", "y", "Vx", "Vy", "isValid"
ZONE T="Frame 0", I=25, J=25, F=POINT
-35.0547683239 35.2574698925 0 -0 0
-31.8127043247 35.2574698925 0 -0 0
-28.5706403255 35.2574698925 0 -0 0
-25.3285763264 35.2574698925 0 -0 0
-22.0865123272 35.2574698925 0 -0 0
-18.844448328 35.2574698925 0 -0 0
-15.6023843288 35.2574698925 0 -0 0
-12.3603203297 35.2574698925 0 -0 0
-9.1182563305 35.2574698925 0 -0 0
-5.8761923313 35.2574698925 0 -0 0
-2.6341283321 35.2574698925 0 -0 0
0.607935667 35.2574698925 0 -0 0
3.8499996662 35.2574698925 0 -0 0
7.0920636654 35.2574698925 0 -0 0
10.3341276646 35.2574698925 0 -0 0
13.5761916637 35.2574698925 0 -0 0
16.8182556629 35.2574698925 0 -0 0
20.0603196621 35.2574698925 0 -0 0
23.3023836613 35.2574698925 0 -0 0
26.5444476604 35.2574698925 0 -0 0
29.7865116596 35.2574698925 0 -0 0
33.0285756588 35.2574698925 0 -0 0
36.270639658 35.2574698925 0 -0 0
39.5127036572 35.2574698925 0 -0 0
42.7547676563 35.2574698925 0 -0 0
-35.0547683239 32.0154058933 0 -0 0
-31.8127043247 32.0154058933 0 -0 0
-28.5706403255 32.0154058933 0 -0 0
-25.3285763264 32.0154058933 0 -0 0
-22.0865123272 32.0154058933 0 -0 0
-18.844448328 32.0154058933 0 -0 0
-15.6023843288 32.0154058933 0 -0 0
-12.3603203297 32.0154058933 0 -0 0
-9.1182563305 32.0154058933 0 -0 0
-5.8761923313 32.0154058933 0 -0 0
-2.6341283321 32.0154058933 0 -0 0
0.607935667 32.0154058933 0 -0 0
3.8499996662 32.0154058933 0 -0 0
7.0920636654 32.0154058933 0 -0 0
10.3341276646 32.0154058933 0 -0 0
13.5761916637 32.0154058933 0 -0 0
16.8182556629 32.0154058933 0 -0 0
20.0603196621 32.0154058933 0 -0 0
23.3023836613 32.0154058933 0 -0 0
26.5444476604 32.0154058933 0 -0 0
29.7865116596 32.0154058933 0 -0 0
33.0285756588 32.0154058933 0 -0 0
36.270639658 32.0154058933 0 -0 0
39.5127036572 32.0154058933 0 -0 0
42.7547676563 32.0154058933 0 -0 0
-35.0547683239 28.7733418941 0 -0 0
-31.8127043247 28.7733418941 0 -0 0
-28.5706403255 28.7733418941 0 -0 0
-25.3285763264 28.7733418941 0 -0 0
-22.0865123272 28.7733418941 0 -0 0
-18.844448328 28.7733418941 0 -0 0
-15.6023843288 28.7733418941 0 -0 0
-12.3603203297 28.7733418941 0 -0 0
-9.1182563305 28.7733418941 0 -0 0
-5.8761923313 28.7733418941 0 -0 0
-2.6341283321 28.7733418941 0 -0 0
0.607935667 28.7733418941 0 -0 0
3.8499996662 28.7733418941 0 -0 0
7.0920636654 28.7733418941 0 -0 0
10.3341276646 28.7733418941 0 -0 0
13.5761916637 28.7733418941 0 -0 0
16.8182556629 28.7733418941 0 -0 0
20.0603196621 28.7733418941 0 -0 0
23.3023836613 28.7733418941 0 -0 0
26.5444476604 28.7733418941 0 -0 0
29.7865116596 28.7733418941 0 -0 0
33.0285756588 28.7733418941 0 -0 0
36.270639658 28.7733418941 0 -0 0
39.5127036572 28.7733418941 0 -0 0
42.7547676563 28.7733418941 0 -0 0
-35.0547683239 25.531277895 0 -0 0
-31.8127043247 25.531277895 0 -0 0
-28.5706403255 25.531277895 0 -0 0
-25.3285763264 25.531277895 0 -0 0
-22.0865123272 25.531277895 0 -0 0
-18.844448328 25.531277895 0 -0 0
-15.6023843288 25.531277895 0 -0 0
-12.3603203297 25.531277895 0 -0 0
-9.1182563305 25.531277895 5.4136704773 4.9238217647 1
-5.8761923313 25.531277895 5.8266257558 4.4923605389 1
-2.6341283321 25.531277895 4.9521667527 4.332672843 1
0.607935667 25.531277895 2.670307053 4.1529589281 1
3.8499996662 25.531277895 0.8185476567 2.9133560554 1
7.0920636654 25.531277895 -0.088000824 0.9604533082 1
10.3341276646 25.531277895 0.3829029289 -1.7275410553 1
13.5761916637 25.531277895 1.4921210384 -4.050746556 1
16.8182556629 25.531277895 1.3175938614 -4.9067784183 1
20.0603196621 25.531277895 0 -0 0
23.3023836613 25.531277895 0 -0 0
26.5444476604 25.531277895 0 -0 0
29.7865116596 25.531277895 0 -0 0
33.0285756588 25.531277895 0 -0 0
36.270639658 25.531277895 0 -0 0
39.5127036572 25.531277895 0 -0 0
42.7547676563 25.531277895 0 -0 0
-35.0547683239 22.2892138958 0 -0 0
-31.8127043247 22.2892138958 0 -0 0
-28.5706403255 22.2892138958 0 -0 0
-25.3285763264 22.2892138958 0 -0 0
-22.0865123272 22.2892138958 0 -0 0
-18.844448328 22.2892138958 0 -0 0
-15.6023843288 22.2892138958 0.8018798491 6.2693548058 1
-12.3603203297 22.2892138958 3.2043475089 5.8301409498 1
-9.1182563305 22.2892138958 6.4173510547 4.5473046936 1
-5.8761923313 22.2892138958 7.2249217317 3.9501341679 1
-2.6341283321 22.2892138958 5.711411212 3.5488283666 1
0.607935667 22.2892138958 3.4149330518 3.1752162673 1
3.8499996662 22.2892138958 2.5057312386 1.8342515895 1
7.0920636654 22.2892138958 1.7482674748 0.2465360782 1
10.3341276646 22.2892138958 1.2391153894 -1.919192197 1
13.5761916637 22.2892138958 1.286229919 -3.4924231208 1
16.8182556629 22.2892138958 0.5488632925 -3.9986678189 1
20.0603196621 22.2892138958 0.0875526118 -3.80045158 1
23.3023836613 22.2892138958 0 -0 0
26.5444476604 22.2892138958 0 -0 0
29.7865116596 22.2892138958 0 -0 0
33.0285756588 22.2892138958 0 -0 0
36.270639658 22.2892138958 0 -0 0
39.5127036572 22.2892138958 0 -0 0
42.7547676563 22.2892138958 0 -0 0
-35.0547683239 19.0471498966 0 -0 0
-31.8127043247 19.0471498966 0 -0 0
-28.5706403255 19.0471498966 0 -0 0
-25.3285763264 19.0471498966 0 -0 0
-22.0865123272 19.0471498966 0 -0 0
-18.844448328 19.0471498966 1.1273540662 4.4931280722 1
-15.6023843288 19.0471498966 0.3966630096 4.634904946 1
-12.3603203297 19.0471498966 2.4423950942 5.4186235131 1
-9.1182563305 19.0471498966 5.7495119049 5.2599162187 1
-5.8761923313 19.0471498966 7.0132763768 4.0344864438 1
-2.6341283321 19.0471498966 5.3712127796 2.0499462714 1
0.607935667 19.0471498966 3.4121074904 1.0411818425 1
3.8499996662 19.0471498966 2.7668483743 0.5725633753 1
7.0920636654 19.0471498966 1.8453092629 0.4369310331 1
10.3341276646 19.0471498966 1.2807590549 -0.8782465476 1
13.5761916637 19.0471498966 0.605820335 -2.2940410456 1
16.8182556629 19.0471498966 -0.1006404687 -3.2993549713 1
20.0603196621 19.0471498966 -0.3652822717 -4.0415123027 1
23.3023836613 19.0471498966 0.158005452 -5.1725279287 1
26.5444476604 19.0471498966 0 -0 0
29.7865116596 19.0471498966 0 -0 0
33.0285756588 19.0471498966 0 -0 0
36.270639658 19.0471498966 0 -0 0
39.5127036572 19.0471498966 0 -0 0
42.7547676563 19.0471498966 0 -0 0
-35.0547683239 15.8050858974 0 -0 0
-31.8127043247 15.8050858974 0 -0 0
-28.5706403255 15.8050858974 0 -0 0
-25.3285763264 15.8050858974 0 -0 0
-22.0865123272 15.8050858974 1.4803595411 5.6671255651 1
-18.844448328 15.8050858974 1.4912448064 4.8486925703 1
-15.6023843288 15.8050858974 1.2138650675 5.3557920626 1
-12.3603203297 15.8050858974 1.7138703868 6.8674474585 1
-9.1182563305 15.8050858974 3.1413946783 6.6774627278 1
-5.8761923313 15.8050858974 4.307180893 3.9155824862 1
-2.6341283321 15.8050858974 3.8011403068 0.473689977 1
0.607935667 15.8050858974 3.0146792121 -0.9431136069 1
3.8499996662 15.8050858974 1.7892196961 0.6039716274 1
7.0920636654 15.8050858974 0.6906128029 2.4487785742 1
10.3341276646 15.8050858974 0.6688172113 1.4453282266 1
13.5761916637 15.8050858974 0.3608945823 -1.1865213149 1
16.8182556629 15.8050858974 0.2476418606 -3.7604175605 1
20.0603196621 15.8050858974 -0.0526842274 -5.1979090664 1
23.3023836613 15.8050858974 0.7346569727 -6.607648596 1
26.5444476604 15.8050858974 1.4878200436 -7.3758437862 1
29.7865116596 15.8050858974 0 -0 0
33.0285756588 15.8050858974 0 -0 0
36.270639658 15.8050858974 0 -0 0
39.5127036572 15.8050858974 0 -0 0
42.7547676563 15.8050858974 0 -0 0
-35.0547683239 12.5630218983 0 -0 0
-31.8127043247 12.5630218983 0 -0 0
-28.5706403255 12.5630218983 0 -0 0
-25.3285763264 12.5630218983 0 -0 0
-22.0865123272 12.5630218983 3.1490111332 3.8909087956 1
-18.844448328 12.5630218983 4.6603630787 5.168267545 1
-15.6023843288 12.5630218983 4.6369656915 7.1999246625 1
-12.3603203297 12.5630218983 3.3860110551 8.5605160916 1
-9.1182563305 12.5630218983 1.8233527369 6.8729935058 1
-5.8761923313 12.5630218983 1.6783760462 2.4794910794 1
-2.6341283321 12.5630218983 1.9371422714 -1.0403079506 1
0.607935667 12.5630218983 2.3007572642 -1.3139645338 1
3.8499996662 12.5630218983 1.5220604244 1.2786762678 1
7.0920636654 12.5630218983 0.8812783345 3.1530384187 1
10.3341276646 12.5630218983 0.9922228325 1.5935148492 1
13.5761916637 12.5630218983 1.014999656 -1.733971789 1
16.8182556629 12.5630218983 1.1711221112 -4.9411673539 1
20.0603196621 12.5630218983 0.968653792 -6.7246524406 1
23.3023836613 12.5630218983 1.0905358665 -7.7614667859 1
26.5444476604 12.5630218983 1.0725740163 -7.7531392606 1
29.7865116596 12.5630218983 0.4600940011 -6.7075855428 1
33.0285756588 12.5630218983 0 -0 0
36.270639658 12.5630218983 0 -0 0
39.5127036572 12.5630218983 0 -0 0
42.7547676563 12.5630218983 0 -0 0
-35.0547683239 9.3209578991 0 -0 0
-31.8127043247 9.3209578991 0 -0 0
-28.5706403255 9.3209578991 0 -0 0
-25.3285763264 9.3209578991 4.2617424364 1.4615613151 1
-22.0865123272 9.3209578991 6.160232822 2.1598493759 1
-18.844448328 9.3209578991 9.2587534263 5.2651035604 1
-15.6023843288 9.3209578991 9.4467435366 8.7689361156 1
-12.3603203297 9.3209578991 7.4574366259 9.4073179277 1
-9.1182563305 9.3209578991 3.7641105976 5.9009170647 1
-5.8761923313 9.3209578991 1.9047912848 0.7187145021 1
-2.6341283321 9.3209578991 1.6276779331 -2.0492783785 1
0.607935667 9.3209578991 2.1105039572 -1.6364360259 1
3.8499996662 9.3209578991 2.2205832441 0.5768232683 1
7.0920636654 9.3209578991 1.9385399551 1.3543799044 1
10.3341276646 9.3209578991 1.2516782374 -0.5855062911 1
13.5761916637 9.3209578991 0.8391751152 -3.4939862679 1
16.8182556629 9.3209578991 1.2019097997 -6.2236615112 1
20.0603196621 9.3209578991 1.0078626074 -8.0949959514 1
23.3023836613 9.3209578991 0.5017057741 -9.0116227891 1
26.5444476604 9.3209578991 -0.0386054718 -8.3699643162 1
29.7865116596 9.3209578991 -0.8371969505 -6.9667352327 1
33.0285756588 9.3209578991 0 -0 0
36.270639658 9.3209578991 0 -0 0
39.5127036572 9.3209578991 0 -0 0
42.7547676563 9.3209578991 0 -0 0
-35.0547683239 6.0788938999 0 -0 0
-31.8127043247 6.0788938999 0 -0 0
-28.5706403255 6.0788938999 0 -0 0
-25.3285763264 6.0788938999 6.2551998243 2.2567232849 1
-22.0865123272 6.0788938999 7.8762694826 3.0118044344 1
-18.844448328 6.0788938999 11.1364714975 6.0366587471 1
-15.6023843288 6.0788938999 11.7046587325 8.6172930265 1
-12.3603203297 6.0788938999 10.0571094761 7.9499744226 1
-9.1182563305 6.0788938999 6.1031768939 4.4900244235 1
-5.8761923313 6.0788938999 3.6488655577 0.3461072615 1
-2.6341283321 6.0788938999 2.4034353799 -1.9163408197 1
0.607935667 6.0788938999 2.1985687454 -1.6214813544 1
3.8499996662 6.0788938999 1.9453851024 -0.7854066422 1
7.0920636654 6.0788938999 1.4376394569 -1.6446897267 1
10.3341276646 6.0788938999 -0.2119865479 -4.1083713405 1
13.5761916637 6.0788938999 -1.0357946915 -6.3477700212 1
16.8182556629 6.0788938999 -0.5536728686 -7.8351542134 1
20.0603196621 6.0788938999 -0.3181301128 -9.1214398405 1
23.3023836613 6.0788938999 -0.588121513 -9.35149271 1
26.5444476604 6.0788938999 -0.9911729091 -8.0173730285 1
29.7865116596 6.0788938999 -1.549077779 -6.4082463339 1
33.0285756588 6.0788938999 -2.3307570384 -5.340777154 1
36.270639658 6.0788938999 0 -0 0
39.5127036572 6.0788938999 0 -0 0
42.7547676563 6.0788938999 0 -0 0
-35.0547683239 2.8368299007 0 -0 0
-31.8127043247 2.8368299007 0 -0 0
-28.5706403255 2.8368299007 5.1516710708 4.7519081867 1
-25.3285763264 2.8368299007 5.5245032573 3.6526820886 1
-22.0865123272 2.8368299007 6.3135704024 4.7476441797 1
-18.844448328 2.8368299007 8.748006188 7.0276795535 1
-15.6023843288 2.8368299007 9.5194218781 7.8140159467 1
-12.3603203297 2.8368299007 8.7980087807 5.8596749803 1
-9.1182563305 2.8368299007 6.3472355861 3.1033794346 1
-5.8761923313 2.8368299007 5.2373171628 0.798100457 1
-2.6341283321 2.8368299007 4.0540038926 -0.6146901459 1
0.607935667 2.8368299007 3.0424139778 -0.8200677774 1
3.8499996662 2.8368299007 1.0862973735 -0.9262758066 1
7.0920636654 2.8368299007 -0.6923734193 -2.5091365262 1
10.3341276646 2.8368299007 -3.0079715987 -4.881822715 1
13.5761916637 2.8368299007 -4.0342457971 -6.1959397289 1
16.8182556629 2.8368299007 -3.3110738949 -6.3855850782 1
20.0603196621 2.8368299007 -2.0239186785 -7.1765894751 1
23.3023836613 2.8368299007 -1.2374341834 -7.8970562902 1
26.5444476604 2.8368299007 -1.1765950889 -7.1217214095 1
29.7865116596 2.8368299007 -1.582257442 -5.6796699946 1
33.0285756588 2.8368299007 -2.0863794967 -4.6868946106 1
36.270639658 2.8368299007 0 -0 0
39.5127036572 2.8368299007 0 -0 0
42.7547676563 2.8368299007 0 -0 0
-35.0547683239 -0.4052340984 0 -0 0
-31.8127043247 -0.4052340984 0 -0 0
-28.5706403255 -0.4052340984 4.1990664854 3.7346686589 1
-25.3285763264 -0.4052340984 3.9644576322 3.5885374979 1
-22.0865123272 -0.4052340984 4.0855645494 4.7447241109 1
-18.844448328 -0.4052340984 5.1253140606 6.3124133655 1
-15.6023843288 -0.4052340984 5.2786111809 5.9314257599 1
-12.3603203297 -0.4052340984 5.0784872805 3.7875747137 1
-9.1182563305 -0.4052340984 4.6630213648 2.0252176276 1
-5.8761923313 -0.4052340984 5.7180738361 1.3233237906 1
-2.6341283321 -0.4052340984 6.0220605167 1.0425709963 1
0.607935667 -0.4052340984 4.6250018939 0.5745580335 1
3.8499996662 -0.4052340984 1.1994363013 -0.3648732175 1
7.0920636654 -0.4052340984 -2.1550676915 -2.4111585708 1
10.3341276646 -0.4052340984 -4.5469795034 -4.3280963273 1
13.5761916637 -0.4052340984 -5.3405899507 -4.4721818399 1
16.8182556629 -0.4052340984 -4.3178780492 -3.4859579659 1
20.0603196621 -0.4052340984 -2.1644892991 -3.7605763813 1
23.3023836613 -0.4052340984 -0.8433963975 -5.391185555 1
26.5444476604 -0.4052340984 -0.8754166081 -6.3415307179 1
29.7865116596 -0.4052340984 -1.4668253498 -6.0630791649 1
33.0285756588 -0.4052340984 -1.7124496047 -5.2947583673 1
36.270639658 -0.4052340984 0 -0 0
39.5127036572 -0.4052340984 0 -0 0
42.7547676563 -0.4052340984 0 -0 0
-35.0547683239 -3.6472980976 0 -0 0
-31.8127043247 -3.6472980976 0 -0 0
-28.5706403255 -3.6472980976 3.3172464693 2.7341183011 1
-25.3285763264 -3.6472980976 3.5100187168 2.5608375354 1
-22.0865123272 -3.6472980976 3.5539942706 2.7105762843 1
-18.844448328 -3.6472980976 3.2195203325 3.1318204397 1
-15.6023843288 -3.6472980976 2.0225336764 3.0736675609 1
-12.3603203297 -3.6472980976 2.5416398419 2.7060782732 1
-9.1182563305 -3.6472980976 4.081343418 2.2367769293 1
-5.8761923313 -3.6472980976 5.9091232098 2.1879146158 1
-2.6341283321 -3.6472980976 6.7668993837 2.0119462757 1
0.607935667 -3.6472980976 5.582967437 0.3594517208 1
3.8499996662 -3.6472980976 3.0499051274 -1.8738618351 1
7.0920636654 -3.6472980976 -0.5416081474 -4.2182508936 1
10.3341276646 -3.6472980976 -2.6499263557 -4.7319314861 1
13.5761916637 -3.6472980976 -3.3751209587 -3.1773591406 1
16.8182556629 -3.6472980976 -2.5957735876 -1.4490514578 1
20.0603196621 -3.6472980976 -0.7700438978 -2.1078544273 1
23.3023836613 -3.6472980976 -0.1157691712 -4.8154377241 1
26.5444476604 -3.6472980976 -0.6954009035 -6.9648541419 1
29.7865116596 -3.6472980976 -1.4431531966 -7.1194091474 1
33.0285756588 -3.6472980976 -1.1496707321 -6.2538272018 1
36.270639658 -3.6472980976 0 -0 0
39.5127036572 -3.6472980976 0 -0 0
42.7547676563 -3.6472980976 0 -0 0
-35.0547683239 -6.8893620968 0 -0 0
-31.8127043247 -6.8893620968 0 -0 0
-28.5706403255 -6.8893620968 2.1543291445 3.3745053016 1
-25.3285763264 -6.8893620968 2.9171650377 3.2839085894 1
-22.0865123272 -6.8893620968 2.9185370564 1.5054758769 1
-18.844448328 -6.8893620968 2.2487257808 -0.5409918864 1
-15.6023843288 -6.8893620968 1.4402911004 -1.2058991916 1
-12.3603203297 -6.8893620968 3.8366515561 0.3735691106 1
-9.1182563305 -6.8893620968 6.0781091706 1.7111692251 1
-5.8761923313 -6.8893620968 6.3354671442 2.0534181369 1
-2.6341283321 -6.8893620968 5.5007320675 1.2437381775 1
0.607935667 -6.8893620968 4.4054016086 -1.1901070121 1
3.8499996662 -6.8893620968 3.4730044066 -3.5256498865 1
7.0920636654 -6.8893620968 1.1130743078 -5.2943410852 1
10.3341276646 -6.8893620968 -0.0904866737 -5.5975034676 1
13.5761916637 -6.8893620968 -0.5326051807 -4.832249784 1
16.8182556629 -6.8893620968 -0.3267250821 -3.9818430775 1
20.0603196621 -6.8893620968 0.0570729689 -4.6484056219 1
23.3023836613 -6.8893620968 -0.2268790761 -6.5298855726 1
26.5444476604 -6.8893620968 -0.8971606433 -7.7517575798 1
29.7865116596 -6.8893620968 -0.8264705815 -7.3890422194 1
33.0285756588 -6.8893620968 0.0036372453 -6.2332384673 1
36.270639658 -6.8893620968 0 -0 0
39.5127036572 -6.8893620968 0 -0 0
42.7547676563 -6.8893620968 0 -0 0
-35.0547683239 -10.131426096 0 -0 0
-31.8127043247 -10.131426096 0 -0 0
-28.5706403255 -10.131426096 0.6130669126 4.9666882902 1
-25.3285763264 -10.131426096 0.6964143675 5.3012416387 1
-22.0865123272 -10.131426096 0.5207701986 3.1108044591 1
-18.844448328 -10.131426096 0.7145297546 -1.0519088908 1
-15.6023843288 -10.131426096 2.4465153774 -4.0167703734 1
-12.3603203297 -10.131426096 6.6757942033 -2.9871401039 1
-9.1182563305 -10.131426096 8.6918458161 -0.0491607819 1
-5.8761923313 -10.131426096 6.94816467 1.3490270992 1
-2.6341283321 -10.131426096 3.6909150316 0.1590768698 1
0.607935667 -10.131426096 1.8723738712 -2.2283108132 1
3.8499996662 -10.131426096 1.2173756568 -3.5260472405 1
7.0920636654 -10.131426096 0.130803404 -4.123274833 1
10.3341276646 -10.131426096 -0.1151100063 -5.2317475641 1
13.5761916637 -10.131426096 0.3842167485 -6.6184743789 1
16.8182556629 -10.131426096 0.7043973785 -7.2393846926 1
20.0603196621 -10.131426096 0.0208787321 -7.4551605967 1
23.3023836613 -10.131426096 -0.7519800672 -7.4463318497 1
26.5444476604 -10.131426096 -1.0371044349 -6.9907854157 1
29.7865116596 -10.131426096 0.0259717338 -5.8720249601 1
33.0285756588 -10.131426096 1.0941609669 -4.7549695638 1
36.270639658 -10.131426096 0 -0 0
39.5127036572 -10.131426096 0 -0 0
42.7547676563 -10.131426096 0 -0 0
-35.0547683239 -13.3734900951 0 -0 0
-31.8127043247 -13.3734900951 0 -0 0
-28.5706403255 -13.3734900951 0 -0 0
-25.3285763264 -13.3734900951 -1.4079610987 5.5233631291 1
-22.0865123272 -13.3734900951 -1.7318761694 4.0822495421 1
-18.844448328 -13.3734900951 -0.6708248152 -0.4666624197 1
-15.6023843288 -13.3734900951 2.7937050964 -4.9184925108 1
-12.3603203297 -13.3734900951 7.4790628287 -5.1267174811 1
-9.1182563305 -13.3734900951 9.1439314054 -1.5165691793 1
-5.8761923313 -13.3734900951 6.7839922484 0.7659085176 1
-2.6341283321 -13.3734900951 2.4791562272 -0.205424904 1
0.607935667 -13.3734900951 -0.346285482 -1.8496399988 1
3.8499996662 -13.3734900951 -1.8333110441 -2.097769305 1
7.0920636654 -13.3734900951 -2.5444074306 -1.9970000586 1
10.3341276646 -13.3734900951 -2.1198182248 -3.6015620132 1
13.5761916637 -13.3734900951 -0.4070493933 -6.230682237 1
16.8182556629 -13.3734900951 1.1153030078 -7.3955025433 1
20.0603196621 -13.3734900951 0.6631724293 -7.2302099216 1
23.3023836613 -13.3734900951 -0.4028560404 -6.367766348 1
26.5444476604 -13.3734900951 -0.6550369383 -5.5883329237 1
29.7865116596 -13.3734900951 0.5303077514 -4.5406046288 1
33.0285756588 -13.3734900951 1.5912110414 -3.6105151598 1
36.270639658 -13.3734900951 0 -0 0
39.5127036572 -13.3734900951 0 -0 0
42.7547676563 -13.3734900951 0 -0 0
-35.0547683239 -16.6155540943 0 -0 0
-31.8127043247 -16.6155540943 0 -0 0
-28.5706403255 -16.6155540943 0 -0 0
-25.3285763264 -16.6155540943 -2.3721843633 3.3046911698 1
-22.0865123272 -16.6155540943 -2.8839554826 2.45549902 1
-18.844448328 -16.6155540943 -1.7701960713 -0.6092063361 1
-15.6023843288 -16.6155540943 1.08645008 -3.997256246 1
-12.3603203297 -16.6155540943 4.4111390864 -5.3337999076 1
-9.1182563305 -16.6155540943 5.5075257339 -2.9053697231 1
-5.8761923313 -16.6155540943 3.8047388364 -0.5695444964 1
-2.6341283321 -16.6155540943 0.7277088635 0.0802856344 1
0.607935667 -16.6155540943 -1.6162401163 -0.2692613453 1
3.8499996662 -16.6155540943 -2.8114872919 -0.652282182 1
7.0920636654 -16.6155540943 -3.1858937973 -1.4402696626 1
10.3341276646 -16.6155540943 -2.3491364725 -3.3179490854 1
13.5761916637 -16.6155540943 0.2823781979 -5.6248985501 1
16.8182556629 -16.6155540943 3.0163670608 -6.1912137526 1
20.0603196621 -16.6155540943 3.1726225964 -5.9359735912 1
23.3023836613 -16.6155540943 1.5650439519 -5.2468464122 1
26.5444476604 -16.6155540943 0.3793448971 -5.0281283977 1
29.7865116596 -16.6155540943 0.5939574234 -4.3928309102 1
33.0285756588 -16.6155540943 0 -0 0
36.270639658 -16.6155540943 0 -0 0
39.5127036572 -16.6155540943 0 -0 0
42.7547676563 -16.6155540943 0 -0 0
-35.0547683239 -19.8576180935 0 -0 0
-31.8127043247 -19.8576180935 0 -0 0
-28.5706403255 -19.8576180935 0 -0 0
-25.3285763264 -19.8576180935 0 -0 0
-22.0865123272 -19.8576180935 -3.5116984131 0.0290550181 1
-18.844448328 -19.8576180935 -3.4564242372 -1.963461841 1
-15.6023843288 -19.8576180935 -2.7353583717 -3.9571047716 1
-12.3603203297 -19.8576180935 -1.3199719466 -5.1608138361 1
-9.1182563305 -19.8576180935 -0.3178013371 -4.3365162465 1
-5.8761923313 -19.8576180935 -0.7404885804 -2.8452252432 1
-2.6341283321 -19.8576180935 -1.8371244045 -1.0867440193 1
0.607935667 -19.8576180935 -2.7405846638 0.1689472368 1
3.8499996662 -19.8576180935 -2.5574449294 -0.073582286 1
7.0920636654 -19.8576180935 -1.8946654005 -1.8344233937 1
10.3341276646 -19.8576180935 -0.4243402556 -4.0899876792 1
13.5761916637 -19.8576180935 2.4078799474 -5.762390281 1
16.8182556629 -19.8576180935 5.3191273998 -5.5945208971 1
20.0603196621 -19.8576180935 5.6765545702 -5.3548512153 1
23.3023836613 -19.8576180935 3.6900282317 -5.2417490488 1
26.5444476604 -19.8576180935 1.3904088311 -5.2363068691 1
29.7865116596 -19.8576180935 0.606898188 -4.9321474784 1
33.0285756588 -19.8576180935 0 -0 0
36.270639658 -19.8576180935 0 -0 0
39.5127036572 -19.8576180935 0 -0 0
42.7547676563 -19.8576180935 0 -0 0
-35.0547683239 -23.0996820927 0 -0 0
-31.8127043247 -23.0996820927 0 -0 0
-28.5706403255 -23.0996820927 0 -0 0
-25.3285763264 -23.0996820927 0 -0 0
-22.0865123272 -23.0996820927 -5.053333806 -1.0552491102 1
-18.844448328 -23.0996820927 -5.5451704964 -2.7466174396 1
-15.6023843288 -23.0996820927 -5.8929663614 -4.0121283366 1
-12.3603203297 -23.0996820927 -5.5317969375 -5.3737913534 1
-9.1182563305 -23.0996820927 -4.776007888 -5.5936428534 1
-5.8761923313 -23.0996820927 -4.2593084921 -4.7674792702 1
-2.6341283321 -23.0996820927 -3.8450618132 -2.2789551809 1
0.607935667 -23.0996820927 -3.464499642 0.0457597215 1
3.8499996662 -23.0996820927 -2.7820673949 0.5034235149 1
7.0920636654 -23.0996820927 -1.3395195895 -1.715077093 1
10.3341276646 -23.0996820927 0.2964913039 -4.5192060892 1
13.5761916637 -23.0996820927 2.5509048932 -6.085626287 1
16.8182556629 -23.0996820927 4.5441968176 -5.5453601151 1
20.0603196621 -23.0996820927 4.8485337495 -4.9833542107 1
23.3023836613 -23.0996820927 3.5641029443 -5.2607489712 1
26.5444476604 -23.0996820927 1.4923257542 -5.4792737436 1
29.7865116596 -23.0996820927 0 -0 0
33.0285756588 -23.0996820927 0 -0 0
36.270639658 -23.0996820927 0 -0 0
39.5127036572 -23.0996820927 0 -0 0
42.7547676563 -23.0996820927 0 -0 0
-35.0547683239 -26.3417460918 0 -0 0
-31.8127043247 -26.3417460918 0 -0 0
-28.5706403255 -26.3417460918 0 -0 0
-25.3285763264 -26.3417460918 0 -0 0
-22.0865123272 -26.3417460918 0 -0 0
-18.844448328 -26.3417460918 -7.3092012399 -1.6221190533 1
-15.6023843288 -26.3417460918 -7.3018350939 -3.5024532899 1
-12.3603203297 -26.3417460918 -7.0264192529 -4.6326222741 1
-9.1182563305 -26.3417460918 -6.0400579959 -4.3891478372 1
-5.8761923313 -26.3417460918 -5.1639926681 -3.5378005854 1
-2.6341283321 -26.3417460918 -4.6399823813 -2.1080197398 1
0.607935667 -26.3417460918 -3.9924541806 -0.410282952 1
3.8499996662 -26.3417460918 -3.5066629476 0.4479308094 1
7.0920636654 -26.3417460918 -2.0561707796 -1.3376001522 1
10.3341276646 -26.3417460918 -1.4155046349 -4.1489180553 1
13.5761916637 -26.3417460918 -0.4834079016 -5.3929096366 1
16.8182556629 -26.3417460918 0.5882696527 -4.6072858235 1
20.0603196621 -26.3417460918 1.3401959367 -4.096600785 1
23.3023836613 -26.3417460918 1.6844975926 -4.8048845936 1
26.5444476604 -26.3417460918 0 -0 0
29.7865116596 -26.3417460918 0 -0 0
33.0285756588 -26.3417460918 0 -0 0
36.270639658 -26.3417460918 0 -0 0
39.5127036572 -26.3417460918 0 -0 0
42.7547676563 -26.3417460918 0 -0 0
-35.0547683239 -29.583810091 0 -0 0
-31.8127043247 -29.583810091 0 -0 0
-28.5706403255 -29.583810091 0 -0 0
-25.3285763264 -29.583810091 0 -0 0
-22.0865123272 -29.583810091 0 -0 0
-18.844448328 -29.583810091 0 -0 0
-15.6023843288 -29.583810091 -7.1789627292 -2.4147777834 1
-12.3603203297 -29.583810091 -6.7798115771 -3.2626954414 1
-9.1182563305 -29.583810091 -5.7421777646 -2.5698827739 1
-5.8761923313 -29.583810091 -4.9794615908 -1.9517255558 1
-2.6341283321 -29.583810091 -5.1303190301 -1.4621854266 1
0.607935667 -29.583810091 -4.872321848 -1.2054010649 1
3.8499996662 -29.583810091 -4.5290206727 -0.8657330669 1
7.0920636654 -29.583810091 -3.2400359974 -1.9776844571 1
10.3341276646 -29.583810091 -3.599586415 -3.712869444 1
13.5761916637 -29.583810091 -4.1528429829 -4.1293532019 1
16.8182556629 -29.583810091 -3.9382675952 -3.2320560058 1
20.0603196621 -29.583810091 -2.7128338951 -2.7297594847 1
23.3023836613 -29.583810091 0 -0 0
26.5444476604 -29.583810091 0 -0 0
29.7865116596 -29.583810091 0 -0 0
33.0285756588 -29.583810091 0 -0 0
36.270639658 -29.583810091 0 -0 0
39.5127036572 -29.583810091 0 -0 0
42.7547676563 -29.583810091 0 -0 0
-35.0547683239 -32.8258740902 0 -0 0
-31.8127043247 -32.8258740902 0 -0 0
-28.5706403255 -32.8258740902 0 -0 0
-25.3285763264 -32.8258740902 0 -0 0
-22.0865123272 -32.8258740902 0 -0 0
-18.844448328 -32.8258740902 0 -0 0
-15.6023843288 -32.8258740902 0 -0 0
-12.3603203297 -32.8258740902 0 -0 0
-9.1182563305 -32.8258740902 -5.5846830642 -2.269596377 1
-5.8761923313 -32.8258740902 -5.419520277 -1.7995033444 1
-2.6341283321 -32.8258740902 -5.9953387621 -1.8038245692 1
0.607935667 -32.8258740902 -5.6744458161 -2.20924854 1
3.8499996662 -32.8258740902 -4.8619296519 -2.3486468757 1
7.0920636654 -32.8258740902 -3.7866728167 -3.0014825905 1
10.3341276646 -32.8258740902 -4.6438472227 -3.6838130837 1
13.5761916637 -32.8258740902 -5.9315912235 -3.3056413773 1
16.8182556629 -32.8258740902 -6.3002222066 -2.3147339496 1
20.0603196621 -32.8258740902 0 -0 0
23.3023836613 -32.8258740902 0 -0 0
26.5444476604 -32.8258740902 0 -0 0
29.7865116596 -32.8258740902 0 -0 0
33.0285756588 -32.8258740902 0 -0 0
36.270639658 -32.8258740902 0 -0 0
39.5127036572 -32.8258740902 0 -0 0
42.7547676563 -32.8258740902 0 -0 0
-35.0547683239 -36.0679380894 0 -0 0
-31.8127043247 -36.0679380894 0 -0 0
-28.5706403255 -36.0679380894 0 -0 0
-25.3285763264 -36.0679380894 0 -0 0
-22.0865123272 -36.0679380894 0 -0 0
-18.844448328 -36.0679380894 0 -0 0
-15.6023843288 -36.0679380894 0 -0 0
-12.3603203297 -36.0679380894 0 -0 0
-9.1182563305 -36.0679380894 0 -0 0
-5.8761923313 -36.0679380894 0 -0 0
-2.6341283321 -36.0679380894 0 -0 0
0.607935667 -36.0679380894 0 -0 0
3.8499996662 -36.0679380894 0 -0 0
7.0920636654 -36.0679380894 0 -0 0
10.3341276646 -36.0679380894 0 -0 0
13.5761916637 -36.0679380894 0 -0 0
16.8182556629 -36.0679380894 0 -0 0
20.0603196621 -36.0679380894 0 -0 0
23.3023836613 -36.0679380894 0 -0 0
26.5444476604 -36.0679380894 0 -0 0
29.7865116596 -36.0679380894 0 -0 0
33.0285756588 -36.0679380894 0 -0 0
36.270639658 -36.0679380894 0 -0 0
39.5127036572 -36.0679380894 0 -0 0
42.7547676563 -36.0679380894 0 -0 0
-35.0547683239 -39.3100020885 0 -0 0
-31.8127043247 -39.3100020885 0 -0 0
-28.5706403255 -39.3100020885 0 -0 0
-25.3285763264 -39.3100020885 0 -0 0
-22.0865123272 -39.3100020885 0 -0 0
-18.844448328 -39.3100020885 0 -0 0
-15.6023843288 -39.3100020885 0 -0 0
-12.3603203297 -39.3100020885 0 -0 0
-9.1182563305 -39.3100020885 0 -0 0
-5.8761923313 -39.3100020885 0 -0 0
-2.6341283321 -39.3100020885 0 -0 0
0.607935667 -39.3100020885 0 -0 0
3.8499996662 -39.3100020885 0 -0 0
7.0920636654 -39.3100020885 0 -0 0
10.3341276646 -39.3100020885 0 -0 0
13.5761916637 -39.3100020885 0 -0 0
16.8182556629 -39.3100020885 0 -0 0
20.0603196621 -39.3100020885 0 -0 0
23.3023836613 -39.3100020885 0 -0 0
26.5444476604 -39.3100020885 0 -0 0
29.7865116596 -39.3100020885 0 -0 0
33.0285756588 -39.3100020885 0 -0 0
36.270639658 -39.3100020885 0 -0 0
39.5127036572 -39.3100020885 0 -0 0
42.7547676563 -39.3100020885 0 -0 0
-35.0547683239 -42.5520660877 0 -0 0
-31.8127043247 -42.5520660877 0 -0 0
-28.5706403255 -42.5520660877 0 -0 0
-25.3285763264 -42.5520660877 0 -0 0
-22.0865123272 -42.5520660877 0 -0 0
-18.844448328 -42.5520660877 0 -0 0
-15.6023843288 -42.5520660877 0 -0 0
-12.3603203297 -42.5520660877 0 -0 0
-9.1182563305 -42.5520660877 0 -0 0
-5.8761923313 -42.5520660877 0 -0 0
-2.6341283321 -42.5520660877 0 -0 0
0.607935667 -42.5520660877 0 -0 0
3.8499996662 -42.5520660877 0 -0 0
7.0920636654 -42.5520660877 0 -0 0
10.3341276646 -42.5520660877 0 -0 0
13.5761916637 -42.5520660877 0 -0 0
16.8182556629 -42.5520660877 0 -0 0
20.0603196621 -42.5520660877 0 -0 0
23.3023836613 -42.5520660877 0 -0 0
26.5444476604 -42.5520660877 0 -0 0
29.7865116596 -42.5520660877 0 -0 0
33.0285756588 -42.5520660877 0 -0 0
36.270639658 -42.5520660877 0 -0 0
39.5127036572 -42.5520660877 0 -0 0
42.7547676563 -42.5520660877 0 -0 0
