TITLE = "B00090"
VARIABLES = "x", "y", "Vx", "Vy", "isValid"
ZONE T="Frame 0", I=25, J=25, F=POINT
-35.0547683239 35.2574698925 0 -0 0
-31.8127043247 35.2574698925 0 -0 0
-28.5706403255 35.2574698925 0 -0 0
-25.3285763264 35.2574698925 0 -0 0
-22.0865123272 35.2574698925 0 -0 0
-18.844448328 35.2574698925 0 -0 0
-15.6023843288 35.2574698925 0 -0 0
-12.3603203297 35.2574698925 0 -0 0
-9.1182563305 35.2574698925 0 -0 0
-5.8761923313 35.2574698925 0 -0 0
-2.6341283321 35.2574698925 0 -0 0
0.607935667 35.2574698925 0 -0 0
3.8499996662 35.2574698925 0 -0 0
7.0920636654 35.2574698925 0 -0 0
10.3341276646 35.2574698925 0 -0 0
13.5761916637 35.2574698925 0 -0 0
16.8182556629 35.2574698925 0 -0 0
20.0603196621 35.2574698925 0 -0 0
23.3023836613 35.2574698925 0 -0 0
26.5444476604 35.2574698925 0 -0 0
29.7865116596 35.2574698925 0 -0 0
33.0285756588 35.2574698925 0 -0 0
36.270639658 35.2574698925 0 -0 0
39.5127036572 35.2574698925 0 -0 0
42.7547676563 35.2574698925 0 -0 0
-35.0547683239 32.0154058933 0 -0 0
-31.8127043247 32.0154058933 0 -0 0
-28.5706403255 32.0154058933 0 -0 0
-25.3285763264 32.0154058933 0 -0 0
-22.0865123272 32.0154058933 0 -0 0
-18.844448328 32.0154058933 0 -0 0
-15.6023843288 32.0154058933 0 -0 0
-12.3603203297 32.0154058933 0 -0 0
-9.1182563305 32.0154058933 0 -0 0
-5.8761923313 32.0154058933 0 -0 0
-2.6341283321 32.0154058933 0 -0 0
0.607935667 32.0154058933 0 -0 0
3.8499996662 32.0154058933 0 -0 0
7.0920636654 32.0154058933 0 -0 0
10.3341276646 32.0154058933 0 -0 0
13.5761916637 32.0154058933 0 -0 0
16.8182556629 32.0154058933 0 -0 0
20.0603196621 32.0154058933 0 -0 0
23.3023836613 32.0154058933 0 -0 0
26.5444476604 32.0154058933 0 -0 0
29.7865116596 32.0154058933 0 -0 0
33.0285756588 32.0154058933 0 -0 0
36.270639658 32.0154058933 0 -0 0
39.5127036572 32.0154058933 0 -0 0
42.7547676563 32.0154058933 0 -0 0
-35.0547683239 28.7733418941 0 -0 0
-31.8127043247 28.7733418941 0 -0 0
-28.5706403255 28.7733418941 0 -0 0
-25.3285763264 28.7733418941 0 -0 0
-22.0865123272 28.7733418941 0 -0 0
-18.844448328 28.7733418941 0 -0 0
-15.6023843288 28.7733418941 0 -0 0
-12.3603203297 28.7733418941 0 -0 0
-9.1182563305 28.7733418941 0 -0 0
-5.8761923313 28.7733418941 0 -0 0
-2.6341283321 28.7733418941 0 -0 0
0.607935667 28.7733418941 0 -0 0
3.8499996662 28.7733418941 0 -0 0
7.0920636654 28.7733418941 0 -0 0
10.3341276646 28.7733418941 0 -0 0
13.5761916637 28.7733418941 0 -0 0
16.8182556629 28.7733418941 0 -0 0
20.0603196621 28.7733418941 0 -0 0
23.3023836613 28.7733418941 0 -0 0
26.5444476604 28.7733418941 0 -0 0
29.7865116596 28.7733418941 0 -0 0
33.0285756588 28.7733418941 0 -0 0
36.270639658 28.7733418941 0 -0 0
39.5127036572 28.7733418941 0 -0 0
42.7547676563 28.7733418941 0 -0 0
-35.0547683239 25.531277895 0 -0 0
-31.8127043247 25.531277895 0 -0 0
-28.5706403255 25.531277895 0 -0 0
-25.3285763264 25.531277895 0 -0 0
-22.0865123272 25.531277895 0 -0 0
-18.844448328 25.531277895 0 -0 0
-15.6023843288 25.531277895 0 -0 0
-12.3603203297 25.531277895 0 -0 0
-9.1182563305 25.531277895 3.5069703232 2.1378197802 1
-5.8761923313 25.531277895 3.9686558161 1.713508058 1
-2.6341283321 25.531277895 4.3201266018 1.4743086489 1
0.607935667 25.531277895 4.6946076866 1.7610256784 1
3.8499996662 25.531277895 4.3393729078 1.4382727776 1
7.0920636654 25.531277895 4.1083118582 0.0797703254 1
10.3341276646 25.531277895 3.6253175021 -1.1398017993 1
13.5761916637 25.531277895 2.9921408463 -0.9295415976 1
16.8182556629 25.531277895 2.4538958657 0.0801067157 1
20.0603196621 25.531277895 0 -0 0
23.3023836613 25.531277895 0 -0 0
26.5444476604 25.531277895 0 -0 0
29.7865116596 25.531277895 0 -0 0
33.0285756588 25.531277895 0 -0 0
36.270639658 25.531277895 0 -0 0
39.5127036572 25.531277895 0 -0 0
42.7547676563 25.531277895 0 -0 0
-35.0547683239 22.2892138958 0 -0 0
-31.8127043247 22.2892138958 0 -0 0
-28.5706403255 22.2892138958 0 -0 0
-25.3285763264 22.2892138958 0 -0 0
-22.0865123272 22.2892138958 0 -0 0
-18.844448328 22.2892138958 0 -0 0
-15.6023843288 22.2892138958 4.9002737091 1.5044150081 1
-12.3603203297 22.2892138958 5.0567016529 2.5382759202 1
-9.1182563305 22.2892138958 4.6993979763 3.2131167735 1
-5.8761923313 22.2892138958 4.5781280111 2.5486116533 1
-2.6341283321 22.2892138958 3.8195517467 1.9278301174 1
0.607935667 22.2892138958 2.9737979469 2.0236674639 1
3.8499996662 22.2892138958 1.9720953833 2.0100460117 1
7.0920636654 22.2892138958 1.9463233832 0.3313199784 1
10.3341276646 22.2892138958 2.168656987 -1.3748099691 1
13.5761916637 22.2892138958 1.9000784429 -1.0696012589 1
16.8182556629 22.2892138958 1.8132863349 0.2946676762 1
20.0603196621 22.2892138958 1.9958602323 0.9569791027 1
23.3023836613 22.2892138958 0 -0 0
26.5444476604 22.2892138958 0 -0 0
29.7865116596 22.2892138958 0 -0 0
33.0285756588 22.2892138958 0 -0 0
36.270639658 22.2892138958 0 -0 0
39.5127036572 22.2892138958 0 -0 0
42.7547676563 22.2892138958 0 -0 0
-35.0547683239 19.0471498966 0 -0 0
-31.8127043247 19.0471498966 0 -0 0
-28.5706403255 19.0471498966 0 -0 0
-25.3285763264 19.0471498966 0 -0 0
-22.0865123272 19.0471498966 0 -0 0
-18.844448328 19.0471498966 6.3704620748 2.6696307058 1
-15.6023843288 19.0471498966 6.5983784117 3.2325931584 1
-12.3603203297 19.0471498966 6.6996722801 4.3928257772 1
-9.1182563305 19.0471498966 5.9999644941 5.0045573946 1
-5.8761923313 19.0471498966 4.8765924977 4.0365390369 1
-2.6341283321 19.0471498966 3.5259720573 2.7438525683 1
0.607935667 19.0471498966 2.6236753266 1.9776565276 1
3.8499996662 19.0471498966 1.8104355615 1.4936687866 1
7.0920636654 19.0471498966 1.8076635946 -0.1399695226 1
10.3341276646 19.0471498966 1.8696663687 -1.5424968298 1
13.5761916637 19.0471498966 2.0483100546 -1.2890190965 1
16.8182556629 19.0471498966 2.4052411364 -0.4795452116 1
20.0603196621 19.0471498966 2.9161891653 -0.484313988 1
23.3023836613 19.0471498966 3.2711920536 -0.9955219124 1
26.5444476604 19.0471498966 0 -0 0
29.7865116596 19.0471498966 0 -0 0
33.0285756588 19.0471498966 0 -0 0
36.270639658 19.0471498966 0 -0 0
39.5127036572 19.0471498966 0 -0 0
42.7547676563 19.0471498966 0 -0 0
-35.0547683239 15.8050858974 0 -0 0
-31.8127043247 15.8050858974 0 -0 0
-28.5706403255 15.8050858974 0 -0 0
-25.3285763264 15.8050858974 0 -0 0
-22.0865123272 15.8050858974 6.3856092335 4.3716536932 1
-18.844448328 15.8050858974 7.3678538306 4.8113183467 1
-15.6023843288 15.8050858974 7.790768926 5.755731884 1
-12.3603203297 15.8050858974 7.9342529727 6.4532373143 1
-9.1182563305 15.8050858974 6.4010148534 5.9800219127 1
-5.8761923313 15.8050858974 4.1755229589 4.3367641399 1
-2.6341283321 15.8050858974 2.5330254728 2.5058171407 1
0.607935667 15.8050858974 2.1348266417 1.1049538383 1
3.8499996662 15.8050858974 1.9091843715 0.7234789759 1
7.0920636654 15.8050858974 1.8794958982 0.1229448965 1
10.3341276646 15.8050858974 1.7173357606 -0.9123516589 1
13.5761916637 15.8050858974 2.3362192971 -1.6791082525 1
16.8182556629 15.8050858974 3.1060334936 -2.6346152432 1
20.0603196621 15.8050858974 3.2059933878 -3.1512156025 1
23.3023836613 15.8050858974 2.7949524136 -2.7777324318 1
26.5444476604 15.8050858974 2.0376474706 -1.7524774344 1
29.7865116596 15.8050858974 0 -0 0
33.0285756588 15.8050858974 0 -0 0
36.270639658 15.8050858974 0 -0 0
39.5127036572 15.8050858974 0 -0 0
42.7547676563 15.8050858974 0 -0 0
-35.0547683239 12.5630218983 0 -0 0
-31.8127043247 12.5630218983 0 -0 0
-28.5706403255 12.5630218983 0 -0 0
-25.3285763264 12.5630218983 0 -0 0
-22.0865123272 12.5630218983 3.8059562614 5.2682576333 1
-18.844448328 12.5630218983 5.2408836867 5.26279311 1
-15.6023843288 12.5630218983 6.1130364665 6.3783964733 1
-12.3603203297 12.5630218983 6.6941588424 6.874923511 1
-9.1182563305 12.5630218983 5.297780794 5.7964395332 1
-5.8761923313 12.5630218983 2.6345527414 3.5774475168 1
-2.6341283321 12.5630218983 0.9911342607 1.321487991 1
0.607935667 12.5630218983 0.7310519513 0.1921749333 1
3.8499996662 12.5630218983 0.6080103867 0.8385718376 1
7.0920636654 12.5630218983 0.2387097744 1.5140666945 1
10.3341276646 12.5630218983 0.0768287527 0.4849216437 1
13.5761916637 12.5630218983 1.39067937 -2.1424039953 1
16.8182556629 12.5630218983 2.5407768953 -4.8933486985 1
20.0603196621 12.5630218983 2.5049067894 -5.6071824797 1
23.3023836613 12.5630218983 1.5333693125 -4.0158105038 1
26.5444476604 12.5630218983 0.7904040632 -1.8247317002 1
29.7865116596 12.5630218983 0.4028284506 -0.7034761573 1
33.0285756588 12.5630218983 0 -0 0
36.270639658 12.5630218983 0 -0 0
39.5127036572 12.5630218983 0 -0 0
42.7547676563 12.5630218983 0 -0 0
-35.0547683239 9.3209578991 0 -0 0
-31.8127043247 9.3209578991 0 -0 0
-28.5706403255 9.3209578991 0 -0 0
-25.3285763264 9.3209578991 1.8332056668 6.4089933353 1
-22.0865123272 9.3209578991 1.4935292899 5.3093088911 1
-18.844448328 9.3209578991 1.7952402432 4.7048280783 1
-15.6023843288 9.3209578991 2.8841722761 5.4283158105 1
-12.3603203297 9.3209578991 4.3389112404 5.9973684077 1
-9.1182563305 9.3209578991 3.9611918413 5.0259492915 1
-5.8761923313 9.3209578991 1.7056897557 2.6425659465 1
-2.6341283321 9.3209578991 0.005762908 0.4593471129 1
0.607935667 9.3209578991 -0.405305912 -0.1474157867 1
3.8499996662 9.3209578991 -1.0649827735 1.2423468346 1
7.0920636654 9.3209578991 -2.1235606292 2.3932278206 1
10.3341276646 9.3209578991 -2.3004995578 1.1509024993 1
13.5761916637 9.3209578991 -0.932972701 -1.9877458771 1
16.8182556629 9.3209578991 0.4646247727 -5.1697730214 1
20.0603196621 9.3209578991 0.6764352514 -6.0732267889 1
23.3023836613 9.3209578991 0.3246423705 -4.3696174049 1
26.5444476604 9.3209578991 0.1597360442 -2.0767724975 1
29.7865116596 9.3209578991 -0.2838582736 -1.3070778696 1
33.0285756588 9.3209578991 0 -0 0
36.270639658 9.3209578991 0 -0 0
39.5127036572 9.3209578991 0 -0 0
42.7547676563 9.3209578991 0 -0 0
-35.0547683239 6.0788938999 0 -0 0
-31.8127043247 6.0788938999 0 -0 0
-28.5706403255 6.0788938999 0 -0 0
-25.3285763264 6.0788938999 2.4115684554 3.8099328208 1
-22.0865123272 6.0788938999 1.890510696 2.8120649045 1
-18.844448328 6.0788938999 1.2714683387 2.588140526 1
-15.6023843288 6.0788938999 1.7328209419 3.752350912 1
-12.3603203297 6.0788938999 2.4473355994 5.2384766152 1
-9.1182563305 6.0788938999 2.2825022296 4.5985407141 1
-5.8761923313 6.0788938999 0.5147646729 2.1724079967 1
-2.6341283321 6.0788938999 -0.8981870153 0.1311898882 1
0.607935667 6.0788938999 -1.2688811595 -0.1803807321 1
3.8499996662 6.0788938999 -2.1124621938 1.0214711516 1
7.0920636654 6.0788938999 -3.168605275 1.6621458262 1
10.3341276646 6.0788938999 -3.4213873368 0.8295238062 1
13.5761916637 6.0788938999 -2.234541813 -1.3111130056 1
16.8182556629 6.0788938999 -0.874772493 -3.4739790713 1
20.0603196621 6.0788938999 -0.4241706404 -4.7459457631 1
23.3023836613 6.0788938999 -0.2731111651 -3.978860507 1
26.5444476604 6.0788938999 -0.148704064 -2.523324872 1
29.7865116596 6.0788938999 -0.6224670446 -2.1978428799 1
33.0285756588 6.0788938999 -1.1510145948 -3.0316697189 1
36.270639658 6.0788938999 0 -0 0
39.5127036572 6.0788938999 0 -0 0
42.7547676563 6.0788938999 0 -0 0
-35.0547683239 2.8368299007 0 -0 0
-31.8127043247 2.8368299007 0 -0 0
-28.5706403255 2.8368299007 2.035770758 0.1896688252 1
-25.3285763264 2.8368299007 2.5160058287 0.249081514 1
-22.0865123272 2.8368299007 3.3643422786 -0.6384395583 1
-18.844448328 2.8368299007 3.3480090967 0.1294657406 1
-15.6023843288 2.8368299007 3.0143552297 3.128247575 1
-12.3603203297 2.8368299007 1.9774804962 5.4899684843 1
-9.1182563305 2.8368299007 0.5957223425 4.9526718996 1
-5.8761923313 2.8368299007 -0.9694568034 2.1253986934 1
-2.6341283321 2.8368299007 -2.1070642484 -0.1407618151 1
0.607935667 2.8368299007 -2.0231134026 -0.8704138276 1
3.8499996662 2.8368299007 -2.0025696573 -0.7026152488 1
7.0920636654 2.8368299007 -2.3704252566 -0.2915893905 1
10.3341276646 2.8368299007 -2.5272691238 -0.0708726039 1
13.5761916637 2.8368299007 -1.9083362199 -0.5126969828 1
16.8182556629 2.8368299007 -0.9163602995 -1.7729466004 1
20.0603196621 2.8368299007 -0.3964769009 -3.3839777862 1
23.3023836613 2.8368299007 -0.1233356738 -3.6476952355 1
26.5444476604 2.8368299007 -0.0831155645 -3.0118150023 1
29.7865116596 2.8368299007 -0.5417283576 -2.9140387434 1
33.0285756588 2.8368299007 -0.968230773 -3.523462024 1
36.270639658 2.8368299007 0 -0 0
39.5127036572 2.8368299007 0 -0 0
42.7547676563 2.8368299007 0 -0 0
-35.0547683239 -0.4052340984 0 -0 0
-31.8127043247 -0.4052340984 0 -0 0
-28.5706403255 -0.4052340984 1.1824882171 -1.1334104689 1
-25.3285763264 -0.4052340984 1.8882562556 -2.4766934476 1
-22.0865123272 -0.4052340984 3.4262032915 -2.7252047088 1
-18.844448328 -0.4052340984 3.7010043811 -0.330467562 1
-15.6023843288 -0.4052340984 3.1184867371 3.7995705169 1
-12.3603203297 -0.4052340984 1.7651997071 5.6559658357 1
-9.1182563305 -0.4052340984 -0.2861528533 4.462491958 1
-5.8761923313 -0.4052340984 -2.252163225 1.4356511772 1
-2.6341283321 -0.4052340984 -3.4804076914 -1.0286339406 1
0.607935667 -0.4052340984 -2.7126934927 -2.092781546 1
3.8499996662 -0.4052340984 -1.5219938465 -2.2784012706 1
7.0920636654 -0.4052340984 -1.2823930072 -1.5364848879 1
10.3341276646 -0.4052340984 -1.6554081697 -0.5457091441 1
13.5761916637 -0.4052340984 -1.8680517406 -0.244655195 1
16.8182556629 -0.4052340984 -1.4665569245 -1.1223005597 1
20.0603196621 -0.4052340984 -0.7281790608 -2.7610363172 1
23.3023836613 -0.4052340984 -0.0734598962 -3.3776457871 1
26.5444476604 -0.4052340984 0.1286176268 -2.9740105132 1
29.7865116596 -0.4052340984 -0.3511272903 -2.7325503229 1
33.0285756588 -0.4052340984 -0.7593862204 -3.1933079519 1
36.270639658 -0.4052340984 0 -0 0
39.5127036572 -0.4052340984 0 -0 0
42.7547676563 -0.4052340984 0 -0 0
-35.0547683239 -3.6472980976 0 -0 0
-31.8127043247 -3.6472980976 0 -0 0
-28.5706403255 -3.6472980976 1.2973807412 -0.3172519559 1
-25.3285763264 -3.6472980976 1.7607358153 -0.9679215857 1
-22.0865123272 -3.6472980976 2.2229794457 0.0916182154 1
-18.844448328 -3.6472980976 1.0238651642 2.7910767024 1
-15.6023843288 -3.6472980976 0.3634539829 5.4567157517 1
-12.3603203297 -3.6472980976 0.2276692173 5.032416258 1
-9.1182563305 -3.6472980976 -1.0460772831 2.962151791 1
-5.8761923313 -3.6472980976 -3.2447985085 -0.1825321541 1
-2.6341283321 -3.6472980976 -4.1045366932 -2.5641504291 1
0.607935667 -3.6472980976 -2.5010999207 -3.5846488032 1
3.8499996662 -3.6472980976 -0.8363302296 -3.5120115256 1
7.0920636654 -3.6472980976 -1.0319512879 -2.0996008774 1
10.3341276646 -3.6472980976 -1.6619439788 -0.8466750964 1
13.5761916637 -3.6472980976 -2.4091961071 -0.6044826621 1
16.8182556629 -3.6472980976 -2.5975384312 -1.6238968803 1
20.0603196621 -3.6472980976 -1.7317839265 -2.8754978208 1
23.3023836613 -3.6472980976 -0.5464606369 -3.0248588418 1
26.5444476604 -3.6472980976 -0.1388465767 -2.5415713013 1
29.7865116596 -3.6472980976 -0.7911909963 -2.3739637001 1
33.0285756588 -3.6472980976 -1.2181028811 -2.8550174831 1
36.270639658 -3.6472980976 0 -0 0
39.5127036572 -3.6472980976 0 -0 0
42.7547676563 -3.6472980976 0 -0 0
-35.0547683239 -6.8893620968 0 -0 0
-31.8127043247 -6.8893620968 0 -0 0
-28.5706403255 -6.8893620968 2.1045348909 1.0006776258 1
-25.3285763264 -6.8893620968 2.0447394545 2.4608518253 1
-22.0865123272 -6.8893620968 0.9627190715 5.2180986353 1
-18.844448328 -6.8893620968 -1.3072397099 7.572746583 1
-15.6023843288 -6.8893620968 -1.7064755564 7.1927016363 1
-12.3603203297 -6.8893620968 -1.075907442 3.7956842378 1
-9.1182563305 -6.8893620968 -2.0342871723 0.5540507852 1
-5.8761923313 -6.8893620968 -4.2008162319 -2.1903087038 1
-2.6341283321 -6.8893620968 -4.229186281 -4.15113581 1
0.607935667 -6.8893620968 -1.6024447463 -4.9842690912 1
3.8499996662 -6.8893620968 -0.0857737091 -4.5874851543 1
7.0920636654 -6.8893620968 -0.8293885367 -2.6918082524 1
10.3341276646 -6.8893620968 -1.5837281952 -1.4624108254 1
13.5761916637 -6.8893620968 -2.2788564462 -1.3465751895 1
16.8182556629 -6.8893620968 -2.7594345216 -2.2075135886 1
20.0603196621 -6.8893620968 -2.4037595133 -2.9290750898 1
23.3023836613 -6.8893620968 -1.2863223129 -2.8265194111 1
26.5444476604 -6.8893620968 -0.9313838134 -2.7052751109 1
29.7865116596 -6.8893620968 -1.4115473997 -2.8922648915 1
33.0285756588 -6.8893620968 -1.5736916854 -3.4781573271 1
36.270639658 -6.8893620968 0 -0 0
39.5127036572 -6.8893620968 0 -0 0
42.7547676563 -6.8893620968 0 -0 0
-35.0547683239 -10.131426096 0 -0 0
-31.8127043247 -10.131426096 0 -0 0
-28.5706403255 -10.131426096 1.8346198062 0.5565003171 1
-25.3285763264 -10.131426096 1.2901548466 3.4917123523 1
-22.0865123272 -10.131426096 -0.2151836284 7.7446354019 1
-18.844448328 -10.131426096 -2.1122366441 9.7396320837 1
-15.6023843288 -10.131426096 -2.1843482428 7.8988788045 1
-12.3603203297 -10.131426096 -2.237343823 3.5830729746 1
-9.1182563305 -10.131426096 -3.6129524253 0.3298770791 1
-5.8761923313 -10.131426096 -5.5799184395 -1.903730718 1
-2.6341283321 -10.131426096 -4.3378592789 -3.6996387032 1
0.607935667 -10.131426096 -0.9527199267 -4.9915585443 1
3.8499996662 -10.131426096 0.358350241 -5.0442728666 1
7.0920636654 -10.131426096 -0.6227504915 -3.5343672173 1
10.3341276646 -10.131426096 -1.4822761099 -2.2297536369 1
13.5761916637 -10.131426096 -1.778185574 -2.0208331462 1
16.8182556629 -10.131426096 -1.8990628653 -2.3591227093 1
20.0603196621 -10.131426096 -2.1236851798 -2.2470918285 1
23.3023836613 -10.131426096 -1.5147558742 -2.0791321644 1
26.5444476604 -10.131426096 -1.4629497896 -2.7572958754 1
29.7865116596 -10.131426096 -1.2756381401 -4.1776208431 1
33.0285756588 -10.131426096 -1.0606290901 -5.1072205643 1
36.270639658 -10.131426096 0 -0 0
39.5127036572 -10.131426096 0 -0 0
42.7547676563 -10.131426096 0 -0 0
-35.0547683239 -13.3734900951 0 -0 0
-31.8127043247 -13.3734900951 0 -0 0
-28.5706403255 -13.3734900951 0 -0 0
-25.3285763264 -13.3734900951 -0.3793953589 4.1244702164 1
-22.0865123272 -13.3734900951 -1.1848980816 7.869048872 1
-18.844448328 -13.3734900951 -1.7701080556 9.3478639863 1
-15.6023843288 -13.3734900951 -2.0245412803 7.8043000979 1
-12.3603203297 -13.3734900951 -3.1954293875 4.8836799524 1
-9.1182563305 -13.3734900951 -5.1879697815 2.8842516865 1
-5.8761923313 -13.3734900951 -6.6760025424 1.6775965862 1
-2.6341283321 -13.3734900951 -4.8709498293 -0.3060138352 1
0.607935667 -13.3734900951 -1.2466947811 -2.6082697067 1
3.8499996662 -13.3734900951 0.1520535963 -4.2198765425 1
7.0920636654 -13.3734900951 -0.7273610278 -3.8014751591 1
10.3341276646 -13.3734900951 -1.6662125149 -2.630892012 1
13.5761916637 -13.3734900951 -1.5207484919 -2.3180287269 1
16.8182556629 -13.3734900951 -0.8346103752 -2.1918116138 1
20.0603196621 -13.3734900951 -1.1872642401 -1.8115628572 1
23.3023836613 -13.3734900951 -1.1369418167 -1.8668471481 1
26.5444476604 -13.3734900951 -1.2405711212 -3.129847257 1
29.7865116596 -13.3734900951 -0.3871862601 -5.2358382571 1
33.0285756588 -13.3734900951 0.2060500723 -6.6077120036 1
36.270639658 -13.3734900951 0 -0 0
39.5127036572 -13.3734900951 0 -0 0
42.7547676563 -13.3734900951 0 -0 0
-35.0547683239 -16.6155540943 0 -0 0
-31.8127043247 -16.6155540943 0 -0 0
-28.5706403255 -16.6155540943 0 -0 0
-25.3285763264 -16.6155540943 -1.6797491217 5.4513611348 1
-22.0865123272 -16.6155540943 -1.3956070427 8.3629731805 1
-18.844448328 -16.6155540943 -1.2488762274 9.1471863265 1
-15.6023843288 -16.6155540943 -1.755694311 7.8711854046 1
-12.3603203297 -16.6155540943 -3.8335059375 6.5469681713 1
-9.1182563305 -16.6155540943 -6.1388970861 5.8719863117 1
-5.8761923313 -16.6155540943 -7.5227373476 5.3036336131 1
-2.6341283321 -16.6155540943 -5.6487319397 3.2153698553 1
0.607935667 -16.6155540943 -2.4205522489 0.1356108383 1
3.8499996662 -16.6155540943 -1.1553063048 -2.519769218 1
7.0920636654 -16.6155540943 -1.8975146642 -3.4870552185 1
10.3341276646 -16.6155540943 -2.5079062686 -2.671015406 1
13.5761916637 -16.6155540943 -1.6060390487 -2.2799472071 1
16.8182556629 -16.6155540943 -0.3367264536 -1.8621643493 1
20.0603196621 -16.6155540943 -0.3222397526 -1.615645444 1
23.3023836613 -16.6155540943 -0.5233639449 -2.171418235 1
26.5444476604 -16.6155540943 -0.6286937418 -3.6138199011 1
29.7865116596 -16.6155540943 0.1189268862 -5.7573943696 1
33.0285756588 -16.6155540943 0 -0 0
36.270639658 -16.6155540943 0 -0 0
39.5127036572 -16.6155540943 0 -0 0
42.7547676563 -16.6155540943 0 -0 0
-35.0547683239 -19.8576180935 0 -0 0
-31.8127043247 -19.8576180935 0 -0 0
-28.5706403255 -19.8576180935 0 -0 0
-25.3285763264 -19.8576180935 0 -0 0
-22.0865123272 -19.8576180935 -1.3556717578 10.6863141017 1
-18.844448328 -19.8576180935 -1.3425771923 9.8032304636 1
-15.6023843288 -19.8576180935 -2.4753170508 7.0409806466 1
-12.3603203297 -19.8576180935 -4.7020453926 5.4194459996 1
-9.1182563305 -19.8576180935 -6.6025530442 5.2080434051 1
-5.8761923313 -19.8576180935 -7.37563122 5.6547417679 1
-2.6341283321 -19.8576180935 -5.8568041279 4.5033925474 1
0.607935667 -19.8576180935 -3.909791565 1.5055703843 1
3.8499996662 -19.8576180935 -3.2937207573 -1.7070638879 1
7.0920636654 -19.8576180935 -3.7314463474 -3.5031758341 1
10.3341276646 -19.8576180935 -3.6047438646 -3.0272680269 1
13.5761916637 -19.8576180935 -2.1552781442 -2.3267268845 1
16.8182556629 -19.8576180935 -0.7714695865 -1.7266371958 1
20.0603196621 -19.8576180935 -0.2001214849 -1.589587808 1
23.3023836613 -19.8576180935 -0.2312935817 -2.3756364517 1
26.5444476604 -19.8576180935 -0.2654748764 -3.6252779479 1
29.7865116596 -19.8576180935 -0.1346700476 -5.3628985396 1
33.0285756588 -19.8576180935 0 -0 0
36.270639658 -19.8576180935 0 -0 0
39.5127036572 -19.8576180935 0 -0 0
42.7547676563 -19.8576180935 0 -0 0
-35.0547683239 -23.0996820927 0 -0 0
-31.8127043247 -23.0996820927 0 -0 0
-28.5706403255 -23.0996820927 0 -0 0
-25.3285763264 -23.0996820927 0 -0 0
-22.0865123272 -23.0996820927 -1.4584807648 11.6576513919 1
-18.844448328 -23.0996820927 -1.6185976695 9.5147882957 1
-15.6023843288 -23.0996820927 -2.5210574481 5.5288638853 1
-12.3603203297 -23.0996820927 -4.1015544246 2.2906034504 1
-9.1182563305 -23.0996820927 -5.4407817355 1.4901711051 1
-5.8761923313 -23.0996820927 -5.9916870909 2.7034308569 1
-2.6341283321 -23.0996820927 -5.5443552564 3.1955260085 1
0.607935667 -23.0996820927 -4.9558646208 1.251379769 1
3.8499996662 -23.0996820927 -4.6135384122 -1.5869403917 1
7.0920636654 -23.0996820927 -4.2045953221 -3.704295837 1
10.3341276646 -23.0996820927 -3.6449898465 -3.7336728584 1
13.5761916637 -23.0996820927 -2.8059992171 -3.0908060187 1
16.8182556629 -23.0996820927 -2.226569521 -2.3655147945 1
20.0603196621 -23.0996820927 -1.1766874828 -1.8981567411 1
23.3023836613 -23.0996820927 -0.259695863 -2.3706292176 1
26.5444476604 -23.0996820927 0.2250808492 -3.2186045463 1
29.7865116596 -23.0996820927 0 -0 0
33.0285756588 -23.0996820927 0 -0 0
36.270639658 -23.0996820927 0 -0 0
39.5127036572 -23.0996820927 0 -0 0
42.7547676563 -23.0996820927 0 -0 0
-35.0547683239 -26.3417460918 0 -0 0
-31.8127043247 -26.3417460918 0 -0 0
-28.5706403255 -26.3417460918 0 -0 0
-25.3285763264 -26.3417460918 0 -0 0
-22.0865123272 -26.3417460918 0 -0 0
-18.844448328 -26.3417460918 -1.5377574171 8.6077420374 1
-15.6023843288 -26.3417460918 -1.8941881831 5.0158671886 1
-12.3603203297 -26.3417460918 -2.2765225954 1.7722057888 1
-9.1182563305 -26.3417460918 -3.3117523558 0.3242730592 1
-5.8761923313 -26.3417460918 -4.1808371158 1.2023134945 1
-2.6341283321 -26.3417460918 -4.8104735166 2.1833196817 1
0.607935667 -26.3417460918 -4.8375748107 1.3853223376 1
3.8499996662 -26.3417460918 -3.9108607371 -0.7975336387 1
7.0920636654 -26.3417460918 -2.8363641886 -2.9612885425 1
10.3341276646 -26.3417460918 -2.668951943 -3.8707180189 1
13.5761916637 -26.3417460918 -3.4647164355 -3.8472391078 1
16.8182556629 -26.3417460918 -4.2029569917 -3.136189824 1
20.0603196621 -26.3417460918 -3.1269622133 -2.2591388107 1
23.3023836613 -26.3417460918 -1.1710270754 -2.0068612918 1
26.5444476604 -26.3417460918 0 -0 0
29.7865116596 -26.3417460918 0 -0 0
33.0285756588 -26.3417460918 0 -0 0
36.270639658 -26.3417460918 0 -0 0
39.5127036572 -26.3417460918 0 -0 0
42.7547676563 -26.3417460918 0 -0 0
-35.0547683239 -29.583810091 0 -0 0
-31.8127043247 -29.583810091 0 -0 0
-28.5706403255 -29.583810091 0 -0 0
-25.3285763264 -29.583810091 0 -0 0
-22.0865123272 -29.583810091 0 -0 0
-18.844448328 -29.583810091 0 -0 0
-15.6023843288 -29.583810091 -0.6257679362 5.2978882849 1
-12.3603203297 -29.583810091 -0.6172681536 3.0332334699 1
-9.1182563305 -29.583810091 -1.4032959634 1.5855425571 1
-5.8761923313 -29.583810091 -2.3689609951 1.4554734352 1
-2.6341283321 -29.583810091 -3.3488807996 1.7974453164 1
0.607935667 -29.583810091 -3.3863954256 1.3834930296 1
3.8499996662 -29.583810091 -2.2410389737 -0.0925651016 1
7.0920636654 -29.583810091 -1.308171499 -1.8166514643 1
10.3341276646 -29.583810091 -1.799444315 -3.3691968816 1
13.5761916637 -29.583810091 -3.6052849424 -4.3218697056 1
16.8182556629 -29.583810091 -5.2508223678 -4.2280256208 1
20.0603196621 -29.583810091 -4.8671127665 -3.2290794741 1
23.3023836613 -29.583810091 0 -0 0
26.5444476604 -29.583810091 0 -0 0
29.7865116596 -29.583810091 0 -0 0
33.0285756588 -29.583810091 0 -0 0
36.270639658 -29.583810091 0 -0 0
39.5127036572 -29.583810091 0 -0 0
42.7547676563 -29.583810091 0 -0 0
-35.0547683239 -32.8258740902 0 -0 0
-31.8127043247 -32.8258740902 0 -0 0
-28.5706403255 -32.8258740902 0 -0 0
-25.3285763264 -32.8258740902 0 -0 0
-22.0865123272 -32.8258740902 0 -0 0
-18.844448328 -32.8258740902 0 -0 0
-15.6023843288 -32.8258740902 0 -0 0
-12.3603203297 -32.8258740902 0 -0 0
-9.1182563305 -32.8258740902 -0.1670590316 3.4217780481 1
-5.8761923313 -32.8258740902 -0.5881914878 2.5532603328 1
-2.6341283321 -32.8258740902 -1.1463533093 2.0992809712 1
0.607935667 -32.8258740902 -1.3539140099 1.6759540287 1
3.8499996662 -32.8258740902 -1.2986274544 0.5422887596 1
7.0920636654 -32.8258740902 -1.2597176358 -0.8171423491 1
10.3341276646 -32.8258740902 -1.9436672106 -2.4276680861 1
13.5761916637 -32.8258740902 -3.4794091734 -3.7118434494 1
16.8182556629 -32.8258740902 -5.1712724591 -4.1909569613 1
20.0603196621 -32.8258740902 0 -0 0
23.3023836613 -32.8258740902 0 -0 0
26.5444476604 -32.8258740902 0 -0 0
29.7865116596 -32.8258740902 0 -0 0
33.0285756588 -32.8258740902 0 -0 0
36.270639658 -32.8258740902 0 -0 0
39.5127036572 -32.8258740902 0 -0 0
42.7547676563 -32.8258740902 0 -0 0
-35.0547683239 -36.0679380894 0 -0 0
-31.8127043247 -36.0679380894 0 -0 0
-28.5706403255 -36.0679380894 0 -0 0
-25.3285763264 -36.0679380894 0 -0 0
-22.0865123272 -36.0679380894 0 -0 0
-18.844448328 -36.0679380894 0 -0 0
-15.6023843288 -36.0679380894 0 -0 0
-12.3603203297 -36.0679380894 0 -0 0
-9.1182563305 -36.0679380894 0 -0 0
-5.8761923313 -36.0679380894 0 -0 0
-2.6341283321 -36.0679380894 0 -0 0
0.607935667 -36.0679380894 0 -0 0
3.8499996662 -36.0679380894 0 -0 0
7.0920636654 -36.0679380894 0 -0 0
10.3341276646 -36.0679380894 0 -0 0
13.5761916637 -36.0679380894 0 -0 0
16.8182556629 -36.0679380894 0 -0 0
20.0603196621 -36.0679380894 0 -0 0
23.3023836613 -36.0679380894 0 -0 0
26.5444476604 -36.0679380894 0 -0 0
29.7865116596 -36.0679380894 0 -0 0
33.0285756588 -36.0679380894 0 -0 0
36.270639658 -36.0679380894 0 -0 0
39.5127036572 -36.0679380894 0 -0 0
42.7547676563 -36.0679380894 0 -0 0
-35.0547683239 -39.3100020885 0 -0 0
-31.8127043247 -39.3100020885 0 -0 0
-28.5706403255 -39.3100020885 0 -0 0
-25.3285763264 -39.3100020885 0 -0 0
-22.0865123272 -39.3100020885 0 -0 0
-18.844448328 -39.3100020885 0 -0 0
-15.6023843288 -39.3100020885 0 -0 0
-12.3603203297 -39.3100020885 0 -0 0
-9.1182563305 -39.3100020885 0 -0 0
-5.8761923313 -39.3100020885 0 -0 0
-2.6341283321 -39.3100020885 0 -0 0
0.607935667 -39.3100020885 0 -0 0
3.8499996662 -39.3100020885 0 -0 0
7.0920636654 -39.3100020885 0 -0 0
10.3341276646 -39.3100020885 0 -0 0
13.5761916637 -39.3100020885 0 -0 0
16.8182556629 -39.3100020885 0 -0 0
20.0603196621 -39.3100020885 0 -0 0
23.3023836613 -39.3100020885 0 -0 0
26.5444476604 -39.3100020885 0 -0 0
29.7865116596 -39.3100020885 0 -0 0
33.0285756588 -39.3100020885 0 -0 0
36.270639658 -39.3100020885 0 -0 0
39.5127036572 -39.3100020885 0 -0 0
42.7547676563 -39.3100020885 0 -0 0
-35.0547683239 -42.5520660877 0 -0 0
-31.8127043247 -42.5520660877 0 -0 0
-28.5706403255 -42.5520660877 0 -0 0
-25.3285763264 -42.5520660877 0 -0 0
-22.0865123272 -42.5520660877 0 -0 0
-18.844448328 -42.5520660877 0 -0 0
-15.6023843288 -42.5520660877 0 -0 0
-12.3603203297 -42.5520660877 0 -0 0
-9.1182563305 -42.5520660877 0 -0 0
-5.8761923313 -42.5520660877 0 -0 0
-2.6341283321 -42.5520660877 0 -0 0
0.607935667 -42.5520660877 0 -0 0
3.8499996662 -42.5520660877 0 -0 0
7.0920636654 -42.5520660877 0 -0 0
10.3341276646 -42.5520660877 0 -0 0
13.5761916637 -42.5520660877 0 -0 0
16.8182556629 -42.5520660877 0 -0 0
20.0603196621 -42.5520660877 0 -0 0
23.3023836613 -42.5520660877 0 -0 0
26.5444476604 -42.5520660877 0 -0 0
29.7865116596 -42.5520660877 0 -0 0
33.0285756588 -42.5520660877 0 -0 0
36.270639658 -42.5520660877 0 -0 0
39.5127036572 -42.5520660877 0 -0 0
42.7547676563 -42.5520660877 0 -0 0
