TITLE = "B00070"
VARIABLES = "x", "y", "Vx", "Vy", "isValid"
ZONE T="Frame 0", I=25, J=25, F=POINT
-35.0547683239 35.2574698925 0 -0 0
-31.8127043247 35.2574698925 0 -0 0
-28.5706403255 35.2574698925 0 -0 0
-25.3285763264 35.2574698925 0 -0 0
-22.0865123272 35.2574698925 0 -0 0
-18.844448328 35.2574698925 0 -0 0
-15.6023843288 35.2574698925 0 -0 0
-12.3603203297 35.2574698925 0 -0 0
-9.1182563305 35.2574698925 0 -0 0
-5.8761923313 35.2574698925 0 -0 0
-2.6341283321 35.2574698925 0 -0 0
0.607935667 35.2574698925 0 -0 0
3.8499996662 35.2574698925 0 -0 0
7.0920636654 35.2574698925 0 -0 0
10.3341276646 35.2574698925 0 -0 0
13.5761916637 35.2574698925 0 -0 0
16.8182556629 35.2574698925 0 -0 0
20.0603196621 35.2574698925 0 -0 0
23.3023836613 35.2574698925 0 -0 0
26.5444476604 35.2574698925 0 -0 0
29.7865116596 35.2574698925 0 -0 0
33.0285756588 35.2574698925 0 -0 0
36.270639658 35.2574698925 0 -0 0
39.5127036572 35.2574698925 0 -0 0
42.7547676563 35.2574698925 0 -0 0
-35.0547683239 32.0154058933 0 -0 0
-31.8127043247 32.0154058933 0 -0 0
-28.5706403255 32.0154058933 0 -0 0
-25.3285763264 32.0154058933 0 -0 0
-22.0865123272 32.0154058933 0 -0 0
-18.844448328 32.0154058933 0 -0 0
-15.6023843288 32.0154058933 0 -0 0
-12.3603203297 32.0154058933 0 -0 0
-9.1182563305 32.0154058933 0 -0 0
-5.8761923313 32.0154058933 0 -0 0
-2.6341283321 32.0154058933 0 -0 0
0.607935667 32.0154058933 0 -0 0
3.8499996662 32.0154058933 0 -0 0
7.0920636654 32.0154058933 0 -0 0
10.3341276646 32.0154058933 0 -0 0
13.5761916637 32.0154058933 0 -0 0
16.8182556629 32.0154058933 0 -0 0
20.0603196621 32.0154058933 0 -0 0
23.3023836613 32.0154058933 0 -0 0
26.5444476604 32.0154058933 0 -0 0
29.7865116596 32.0154058933 0 -0 0
33.0285756588 32.0154058933 0 -0 0
36.270639658 32.0154058933 0 -0 0
39.5127036572 32.0154058933 0 -0 0
42.7547676563 32.0154058933 0 -0 0
-35.0547683239 28.7733418941 0 -0 0
-31.8127043247 28.7733418941 0 -0 0
-28.5706403255 28.7733418941 0 -0 0
-25.3285763264 28.7733418941 0 -0 0
-22.0865123272 28.7733418941 0 -0 0
-18.844448328 28.7733418941 0 -0 0
-15.6023843288 28.7733418941 0 -0 0
-12.3603203297 28.7733418941 0 -0 0
-9.1182563305 28.7733418941 0 -0 0
-5.8761923313 28.7733418941 0 -0 0
-2.6341283321 28.7733418941 0 -0 0
0.607935667 28.7733418941 0 -0 0
3.8499996662 28.7733418941 0 -0 0
7.0920636654 28.7733418941 0 -0 0
10.3341276646 28.7733418941 0 -0 0
13.5761916637 28.7733418941 0 -0 0
16.8182556629 28.7733418941 0 -0 0
20.0603196621 28.7733418941 0 -0 0
23.3023836613 28.7733418941 0 -0 0
26.5444476604 28.7733418941 0 -0 0
29.7865116596 28.7733418941 0 -0 0
33.0285756588 28.7733418941 0 -0 0
36.270639658 28.7733418941 0 -0 0
39.5127036572 28.7733418941 0 -0 0
42.7547676563 28.7733418941 0 -0 0
-35.0547683239 25.531277895 0 -0 0
-31.8127043247 25.531277895 0 -0 0
-28.5706403255 25.531277895 0 -0 0
-25.3285763264 25.531277895 0 -0 0
-22.0865123272 25.531277895 0 -0 0
-18.844448328 25.531277895 0 -0 0
-15.6023843288 25.531277895 0 -0 0
-12.3603203297 25.531277895 0 -0 0
-9.1182563305 25.531277895 5.4435934076 2.3942557778 1
-5.8761923313 25.531277895 6.9813189699 3.2696530617 1
-2.6341283321 25.531277895 5.972547068 3.9714351806 1
0.607935667 25.531277895 3.0942070791 3.5746947232 1
3.8499996662 25.531277895 -0.0065680831 1.6849034009 1
7.0920636654 25.531277895 1.4149925434 0.9311046692 1
10.3341276646 25.531277895 4.2222470791 3.3529095947 1
13.5761916637 25.531277895 6.4121649207 7.3031032449 1
16.8182556629 25.531277895 0 -0 0
20.0603196621 25.531277895 0 -0 0
23.3023836613 25.531277895 0 -0 0
26.5444476604 25.531277895 0 -0 0
29.7865116596 25.531277895 0 -0 0
33.0285756588 25.531277895 0 -0 0
36.270639658 25.531277895 0 -0 0
39.5127036572 25.531277895 0 -0 0
42.7547676563 25.531277895 0 -0 0
-35.0547683239 22.2892138958 0 -0 0
-31.8127043247 22.2892138958 0 -0 0
-28.5706403255 22.2892138958 0 -0 0
-25.3285763264 22.2892138958 0 -0 0
-22.0865123272 22.2892138958 0 -0 0
-18.844448328 22.2892138958 0 -0 0
-15.6023843288 22.2892138958 -3.6153108844 1.1714838362 1
-12.3603203297 22.2892138958 0.8963109066 0.3930490055 1
-9.1182563305 22.2892138958 5.3366206379 -0.7531266116 1
-5.8761923313 22.2892138958 7.2217265949 0.0855053216 1
-2.6341283321 22.2892138958 5.6791675653 1.4692452538 1
0.607935667 22.2892138958 3.1181817769 2.183598826 1
3.8499996662 22.2892138958 1.161464235 1.2405926344 1
7.0920636654 22.2892138958 2.7295958328 0.9720248093 1
10.3341276646 22.2892138958 3.8672568724 3.5729168962 1
13.5761916637 22.2892138958 3.5422795741 6.070684448 1
16.8182556629 22.2892138958 0.2340276173 7.1431628246 1
20.0603196621 22.2892138958 -1.4526653864 4.7296156007 1
23.3023836613 22.2892138958 0 -0 0
26.5444476604 22.2892138958 0 -0 0
29.7865116596 22.2892138958 0 -0 0
33.0285756588 22.2892138958 0 -0 0
36.270639658 22.2892138958 0 -0 0
39.5127036572 22.2892138958 0 -0 0
42.7547676563 22.2892138958 0 -0 0
-35.0547683239 19.0471498966 0 -0 0
-31.8127043247 19.0471498966 0 -0 0
-28.5706403255 19.0471498966 0 -0 0
-25.3285763264 19.0471498966 0 -0 0
-22.0865123272 19.0471498966 0 -0 0
-18.844448328 19.0471498966 -3.9116940935 1.5143363276 1
-15.6023843288 19.0471498966 -1.840851108 2.0717288796 1
-12.3603203297 19.0471498966 2.0881502281 1.2617676624 1
-9.1182563305 19.0471498966 5.9801976422 -0.4720237925 1
-5.8761923313 19.0471498966 6.8005168607 -0.6784299473 1
-2.6341283321 19.0471498966 4.7338059341 0.2055537383 1
0.607935667 19.0471498966 2.4528580954 0.755200718 1
3.8499996662 19.0471498966 0.7984998491 -0.2222756123 1
7.0920636654 19.0471498966 0.954901373 0.6285305429 1
10.3341276646 19.0471498966 0.4588962399 3.9981010761 1
13.5761916637 19.0471498966 -1.2065368905 6.4794880414 1
16.8182556629 19.0471498966 -3.0674472799 5.6029293425 1
20.0603196621 19.0471498966 -2.9612812959 1.4668757739 1
23.3023836613 19.0471498966 -0.2069375705 -2.4286963453 1
26.5444476604 19.0471498966 0 -0 0
29.7865116596 19.0471498966 0 -0 0
33.0285756588 19.0471498966 0 -0 0
36.270639658 19.0471498966 0 -0 0
39.5127036572 19.0471498966 0 -0 0
42.7547676563 19.0471498966 0 -0 0
-35.0547683239 15.8050858974 0 -0 0
-31.8127043247 15.8050858974 0 -0 0
-28.5706403255 15.8050858974 0 -0 0
-25.3285763264 15.8050858974 0 -0 0
-22.0865123272 15.8050858974 -2.391264602 2.2527073222 1
-18.844448328 15.8050858974 -1.7443645889 3.5988385078 1
-15.6023843288 15.8050858974 0.4394818284 4.551505595 1
-12.3603203297 15.8050858974 2.9906314446 3.7879889763 1
-9.1182563305 15.8050858974 5.0231258437 2.0880149587 1
-5.8761923313 15.8050858974 5.5510245232 1.3162811741 1
-2.6341283321 15.8050858974 3.8782136976 1.3217799677 1
0.607935667 15.8050858974 2.290936189 1.2306578031 1
3.8499996662 15.8050858974 0.4660182669 0.3572144154 1
7.0920636654 15.8050858974 0.0728307886 0.5146057766 1
10.3341276646 15.8050858974 -0.8775444599 3.0069948205 1
13.5761916637 15.8050858974 -2.547946176 4.8668573246 1
16.8182556629 15.8050858974 -3.4874697831 4.3169375038 1
20.0603196621 15.8050858974 -2.6298762834 0.2454668117 1
23.3023836613 15.8050858974 0.3704772375 -3.647463345 1
26.5444476604 15.8050858974 2.1090132758 -5.4915699779 1
29.7865116596 15.8050858974 0 -0 0
33.0285756588 15.8050858974 0 -0 0
36.270639658 15.8050858974 0 -0 0
39.5127036572 15.8050858974 0 -0 0
42.7547676563 15.8050858974 0 -0 0
-35.0547683239 12.5630218983 0 -0 0
-31.8127043247 12.5630218983 0 -0 0
-28.5706403255 12.5630218983 0 -0 0
-25.3285763264 12.5630218983 0 -0 0
-22.0865123272 12.5630218983 -0.7724385898 1.167486141 1
-18.844448328 12.5630218983 0.5837842854 3.8225901763 1
-15.6023843288 12.5630218983 2.1144246576 5.7260909664 1
-12.3603203297 12.5630218983 2.0711191103 5.2577772705 1
-9.1182563305 12.5630218983 1.8405684915 3.7149304914 1
-5.8761923313 12.5630218983 2.7117574764 2.7303923525 1
-2.6341283321 12.5630218983 2.7253164269 3.0204957983 1
0.607935667 12.5630218983 2.4732537388 3.3164140187 1
3.8499996662 12.5630218983 1.1817117765 2.1616958944 1
7.0920636654 12.5630218983 0.9682071462 1.052145084 1
10.3341276646 12.5630218983 0.3881868162 1.7061213799 1
13.5761916637 12.5630218983 -1.0501761285 3.7521661242 1
16.8182556629 12.5630218983 -1.7912573431 3.9841640959 1
20.0603196621 12.5630218983 -1.321926107 1.1143046408 1
23.3023836613 12.5630218983 0.6249770402 -2.8878094541 1
26.5444476604 12.5630218983 1.5445479132 -4.8240638688 1
29.7865116596 12.5630218983 0.5181769806 -4.1313454068 1
33.0285756588 12.5630218983 0 -0 0
36.270639658 12.5630218983 0 -0 0
39.5127036572 12.5630218983 0 -0 0
42.7547676563 12.5630218983 0 -0 0
-35.0547683239 9.3209578991 0 -0 0
-31.8127043247 9.3209578991 0 -0 0
-28.5706403255 9.3209578991 0 -0 0
-25.3285763264 9.3209578991 1.4718185437 -4.7821357751 1
-22.0865123272 9.3209578991 1.7891596099 -2.1331283761 1
-18.844448328 9.3209578991 2.6058907157 1.7800127683 1
-15.6023843288 9.3209578991 2.4378990458 4.6058343944 1
-12.3603203297 9.3209578991 0.8936415241 3.9548836955 1
-9.1182563305 9.3209578991 -0.4707548489 1.5752835169 1
-5.8761923313 9.3209578991 0.7270367435 0.9350511101 1
-2.6341283321 9.3209578991 1.9229217689 2.4535752046 1
0.607935667 9.3209578991 2.8610925305 3.7678918013 1
3.8499996662 9.3209578991 2.7040791237 2.7443272191 1
7.0920636654 9.3209578991 3.1296712256 0.5351967757 1
10.3341276646 9.3209578991 2.9335948406 -0.2976421699 1
13.5761916637 9.3209578991 1.5122844894 0.3854728219 1
16.8182556629 9.3209578991 0.1039642322 1.4690133633 1
20.0603196621 9.3209578991 -0.2784339084 0.5167464609 1
23.3023836613 9.3209578991 0.4041013572 -1.9244655918 1
26.5444476604 9.3209578991 0.8112924739 -3.2160760946 1
29.7865116596 9.3209578991 -0.628206334 -2.9822411155 1
33.0285756588 9.3209578991 0 -0 0
36.270639658 9.3209578991 0 -0 0
39.5127036572 9.3209578991 0 -0 0
42.7547676563 9.3209578991 0 -0 0
-35.0547683239 6.0788938999 0 -0 0
-31.8127043247 6.0788938999 0 -0 0
-28.5706403255 6.0788938999 0 -0 0
-25.3285763264 6.0788938999 3.4870497835 -6.8070550853 1
-22.0865123272 6.0788938999 3.7143465381 -5.4184882436 1
-18.844448328 6.0788938999 3.4222095214 -1.4745873402 1
-15.6023843288 6.0788938999 2.2833117327 2.204984382 1
-12.3603203297 6.0788938999 0.9292410156 2.158198213 1
-9.1182563305 6.0788938999 0.1115522009 -0.816516426 1
-5.8761923313 6.0788938999 0.399351905 -1.8726401829 1
-2.6341283321 6.0788938999 0.8971413191 0.1156188802 1
0.607935667 6.0788938999 2.2339341573 1.9399377897 1
3.8499996662 6.0788938999 3.7562758395 0.8792320821 1
7.0920636654 6.0788938999 5.0416468881 -0.9041066388 1
10.3341276646 6.0788938999 4.611771455 -1.8339596128 1
13.5761916637 6.0788938999 2.5388314911 -1.7324882032 1
16.8182556629 6.0788938999 0.6615878444 -1.3393242338 1
20.0603196621 6.0788938999 -0.2789105784 -1.0232060276 1
23.3023836613 6.0788938999 -0.1954557647 -1.3275192571 1
26.5444476604 6.0788938999 -0.125469923 -1.7067697977 1
29.7865116596 6.0788938999 -0.9935133272 -2.2569556283 1
33.0285756588 6.0788938999 -1.768078561 -2.0543256198 1
36.270639658 6.0788938999 0 -0 0
39.5127036572 6.0788938999 0 -0 0
42.7547676563 6.0788938999 0 -0 0
-35.0547683239 2.8368299007 0 -0 0
-31.8127043247 2.8368299007 0 -0 0
-28.5706403255 2.8368299007 2.2983800848 -5.993230008 1
-25.3285763264 2.8368299007 3.037558167 -6.6423023336 1
-22.0865123272 2.8368299007 3.4954032758 -6.054305975 1
-18.844448328 2.8368299007 3.1627328297 -2.7353930949 1
-15.6023843288 2.8368299007 2.2349562267 0.9597839811 1
-12.3603203297 2.8368299007 1.3398117171 1.6121648222 1
-9.1182563305 2.8368299007 0.979932637 -1.077532789 1
-5.8761923313 2.8368299007 0.15562213 -2.663485608 1
-2.6341283321 2.8368299007 -0.4136196236 -1.8809731432 1
0.607935667 2.8368299007 0.718218489 -0.9632902678 1
3.8499996662 2.8368299007 3.3044843404 -1.2174336295 1
7.0920636654 2.8368299007 5.0761405971 -1.9411466094 1
10.3341276646 2.8368299007 4.7053754969 -2.1402911651 1
13.5761916637 2.8368299007 2.7521106473 -2.2756164712 1
16.8182556629 2.8368299007 0.9291314866 -2.1204666426 1
20.0603196621 2.8368299007 -0.4085803083 -1.5708196252 1
23.3023836613 2.8368299007 -1.0089275524 -1.0374522706 1
26.5444476604 2.8368299007 -1.0282410402 -0.9921691625 1
29.7865116596 2.8368299007 -0.6788186205 -1.9880078107 1
33.0285756588 2.8368299007 -0.5308646056 -2.7644579095 1
36.270639658 2.8368299007 0 -0 0
39.5127036572 2.8368299007 0 -0 0
42.7547676563 2.8368299007 0 -0 0
-35.0547683239 -0.4052340984 0 -0 0
-31.8127043247 -0.4052340984 0 -0 0
-28.5706403255 -0.4052340984 0.9464696027 -4.370605355 1
-25.3285763264 -0.4052340984 0.2827045581 -5.0223891083 1
-22.0865123272 -0.4052340984 0.257984595 -4.7447153546 1
-18.844448328 -0.4052340984 0.7225750408 -2.9376894589 1
-15.6023843288 -0.4052340984 1.4492919536 -0.4753776369 1
-12.3603203297 -0.4052340984 0.9992354059 0.7153735279 1
-9.1182563305 -0.4052340984 0.0092090578 -0.5093517437 1
-5.8761923313 -0.4052340984 -1.5682710944 -2.0733048592 1
-2.6341283321 -0.4052340984 -2.1008740105 -2.9775574109 1
0.607935667 -0.4052340984 -0.6581996919 -3.2647495442 1
3.8499996662 -0.4052340984 2.241500641 -3.1469512936 1
7.0920636654 -0.4052340984 4.1520398206 -2.9396218795 1
10.3341276646 -0.4052340984 4.2500950727 -2.8217916232 1
13.5761916637 -0.4052340984 2.9977339963 -2.5834254195 1
16.8182556629 -0.4052340984 1.4693826368 -2.2531810672 1
20.0603196621 -0.4052340984 -0.1711523477 -1.5599980694 1
23.3023836613 -0.4052340984 -1.3688236922 -0.8574322633 1
26.5444476604 -0.4052340984 -1.4856578461 -1.1526653047 1
29.7865116596 -0.4052340984 -0.4460821395 -2.403643568 1
33.0285756588 -0.4052340984 0.3521678913 -3.7477768118 1
36.270639658 -0.4052340984 0 -0 0
39.5127036572 -0.4052340984 0 -0 0
42.7547676563 -0.4052340984 0 -0 0
-35.0547683239 -3.6472980976 0 -0 0
-31.8127043247 -3.6472980976 0 -0 0
-28.5706403255 -3.6472980976 -0.3729199757 -1.9842654063 1
-25.3285763264 -3.6472980976 -2.4122965855 -2.442238387 1
-22.0865123272 -3.6472980976 -3.5345649885 -2.9981678852 1
-18.844448328 -3.6472980976 -2.3820241588 -3.1650882693 1
-15.6023843288 -3.6472980976 -0.1214354664 -2.5621579223 1
-12.3603203297 -3.6472980976 -0.1009603937 -1.5493117831 1
-9.1182563305 -3.6472980976 -2.6110611487 -1.1873458396 1
-5.8761923313 -3.6472980976 -4.6551370885 -1.7221840229 1
-2.6341283321 -3.6472980976 -3.9143650612 -2.9792494868 1
0.607935667 -3.6472980976 -1.3983275287 -3.9701498189 1
3.8499996662 -3.6472980976 1.548339232 -3.980174553 1
7.0920636654 -3.6472980976 3.0681106437 -3.3695253931 1
10.3341276646 -3.6472980976 3.598506675 -3.0295697211 1
13.5761916637 -3.6472980976 3.1378175865 -2.5596050134 1
16.8182556629 -3.6472980976 2.2177190343 -2.1651528138 1
20.0603196621 -3.6472980976 0.5587594377 -1.6450568867 1
23.3023836613 -3.6472980976 -1.1498310626 -1.1056903472 1
26.5444476604 -3.6472980976 -1.7387792893 -1.5105324783 1
29.7865116596 -3.6472980976 -0.82645556 -2.812668484 1
33.0285756588 -3.6472980976 0.3324629373 -4.2537298352 1
36.270639658 -3.6472980976 0 -0 0
39.5127036572 -3.6472980976 0 -0 0
42.7547676563 -3.6472980976 0 -0 0
-35.0547683239 -6.8893620968 0 -0 0
-31.8127043247 -6.8893620968 0 -0 0
-28.5706403255 -6.8893620968 -1.8769559728 -0.2957891973 1
-25.3285763264 -6.8893620968 -3.9947302098 -1.1669372882 1
-22.0865123272 -6.8893620968 -5.4754107139 -2.4580949554 1
-18.844448328 -6.8893620968 -3.8755834919 -4.0350166518 1
-15.6023843288 -6.8893620968 -1.1725413082 -4.5778423752 1
-12.3603203297 -6.8893620968 -0.9835871011 -3.7782538033 1
-9.1182563305 -6.8893620968 -4.5900767116 -2.7648966294 1
-5.8761923313 -6.8893620968 -6.66016092 -2.1130934009 1
-2.6341283321 -6.8893620968 -4.6914838078 -2.4168184498 1
0.607935667 -6.8893620968 -1.1335150159 -2.6962401384 1
3.8499996662 -6.8893620968 1.6328547069 -2.6155956946 1
7.0920636654 -6.8893620968 2.5143927104 -2.0814296314 1
10.3341276646 -6.8893620968 2.9492045725 -1.8300023776 1
13.5761916637 -6.8893620968 2.9568418613 -1.6775988508 1
16.8182556629 -6.8893620968 2.7436122235 -1.829495721 1
20.0603196621 -6.8893620968 1.7327415315 -2.0326187987 1
23.3023836613 -6.8893620968 0.0245224183 -2.1243572998 1
26.5444476604 -6.8893620968 -1.1172998928 -2.7892131242 1
29.7865116596 -6.8893620968 -0.9154885966 -3.8699236129 1
33.0285756588 -6.8893620968 0.043166697 -4.9654916991 1
36.270639658 -6.8893620968 0 -0 0
39.5127036572 -6.8893620968 0 -0 0
42.7547676563 -6.8893620968 0 -0 0
-35.0547683239 -10.131426096 0 -0 0
-31.8127043247 -10.131426096 0 -0 0
-28.5706403255 -10.131426096 -3.7523614799 -1.0102298228 1
-25.3285763264 -10.131426096 -5.0876475584 -3.3456461085 1
-22.0865123272 -10.131426096 -5.7414343865 -5.3900405958 1
-18.844448328 -10.131426096 -3.8686352318 -6.5171358233 1
-15.6023843288 -10.131426096 -1.6138590117 -5.6515683709 1
-12.3603203297 -10.131426096 -1.462224075 -3.55345742 1
-9.1182563305 -10.131426096 -4.6976289055 -1.5200721447 1
-5.8761923313 -10.131426096 -6.0695509625 -0.3366835026 1
-2.6341283321 -10.131426096 -3.5691208973 -0.2064748463 1
0.607935667 -10.131426096 0.1277008026 -0.5734308132 1
3.8499996662 -10.131426096 2.2682432296 -0.7584536765 1
7.0920636654 -10.131426096 2.4472927239 -0.5531833472 1
10.3341276646 -10.131426096 2.2869190186 -0.5266748005 1
13.5761916637 -10.131426096 2.1114208002 -0.8841661711 1
16.8182556629 -10.131426096 1.970338994 -1.7191436307 1
20.0603196621 -10.131426096 1.9889954588 -2.7758706653 1
23.3023836613 -10.131426096 1.4701642104 -3.9290813504 1
26.5444476604 -10.131426096 0.5721704371 -4.8351761935 1
29.7865116596 -10.131426096 0.1704266143 -5.6194533509 1
33.0285756588 -10.131426096 0.3964274958 -5.8192952387 1
36.270639658 -10.131426096 0 -0 0
39.5127036572 -10.131426096 0 -0 0
42.7547676563 -10.131426096 0 -0 0
-35.0547683239 -13.3734900951 0 -0 0
-31.8127043247 -13.3734900951 0 -0 0
-28.5706403255 -13.3734900951 0 -0 0
-25.3285763264 -13.3734900951 -6.5574817476 -7.3562025417 1
-22.0865123272 -13.3734900951 -6.0085184749 -9.0714849544 1
-18.844448328 -13.3734900951 -3.9706800268 -8.2167946148 1
-15.6023843288 -13.3734900951 -1.9723316519 -4.8215828218 1
-12.3603203297 -13.3734900951 -1.5587613201 -0.7934862742 1
-9.1182563305 -13.3734900951 -3.3943977608 1.9657398328 1
-5.8761923313 -13.3734900951 -3.9211541985 2.7262119831 1
-2.6341283321 -13.3734900951 -2.0538367777 1.9482213826 1
0.607935667 -13.3734900951 0.6877012639 0.8370086904 1
3.8499996662 -13.3734900951 2.2792515357 0.5348339184 1
7.0920636654 -13.3734900951 2.5315076168 0.7842471898 1
10.3341276646 -13.3734900951 2.0674023709 0.4670209743 1
13.5761916637 -13.3734900951 1.4254135748 -0.5468943747 1
16.8182556629 -13.3734900951 1.0800943031 -2.0486793281 1
20.0603196621 -13.3734900951 1.7238502828 -3.4926806762 1
23.3023836613 -13.3734900951 2.1676670743 -4.5872940258 1
26.5444476604 -13.3734900951 1.7509856962 -5.2850866018 1
29.7865116596 -13.3734900951 1.421510085 -5.707172568 1
33.0285756588 -13.3734900951 1.4518869832 -5.8443913445 1
36.270639658 -13.3734900951 0 -0 0
39.5127036572 -13.3734900951 0 -0 0
42.7547676563 -13.3734900951 0 -0 0
-35.0547683239 -16.6155540943 0 -0 0
-31.8127043247 -16.6155540943 0 -0 0
-28.5706403255 -16.6155540943 0 -0 0
-25.3285763264 -16.6155540943 -8.8158311343 -8.4485377485 1
-22.0865123272 -16.6155540943 -7.9609378905 -8.824839234 1
-18.844448328 -16.6155540943 -5.7620170822 -6.8060218441 1
-15.6023843288 -16.6155540943 -3.5833392863 -2.6340503121 1
-12.3603203297 -16.6155540943 -2.302678966 1.7275196175 1
-9.1182563305 -16.6155540943 -2.3586740254 4.4053092147 1
-5.8761923313 -16.6155540943 -1.7508182701 4.2583896865 1
-2.6341283321 -16.6155540943 -0.7383135504 2.3479770201 1
0.607935667 -16.6155540943 0.6463131157 0.6213269164 1
3.8499996662 -16.6155540943 1.7169708652 0.6704125906 1
7.0920636654 -16.6155540943 2.274461246 1.2160186597 1
10.3341276646 -16.6155540943 1.9968154218 0.5973262517 1
13.5761916637 -16.6155540943 1.3166720363 -0.8936372215 1
16.8182556629 -16.6155540943 1.1193976261 -2.5852781278 1
20.0603196621 -16.6155540943 1.6955789684 -3.9123767815 1
23.3023836613 -16.6155540943 1.9273039856 -4.242380487 1
26.5444476604 -16.6155540943 1.3669708329 -3.9567493873 1
29.7865116596 -16.6155540943 1.3569113755 -3.79166903 1
33.0285756588 -16.6155540943 0 -0 0
36.270639658 -16.6155540943 0 -0 0
39.5127036572 -16.6155540943 0 -0 0
42.7547676563 -16.6155540943 0 -0 0
-35.0547683239 -19.8576180935 0 -0 0
-31.8127043247 -19.8576180935 0 -0 0
-28.5706403255 -19.8576180935 0 -0 0
-25.3285763264 -19.8576180935 0 -0 0
-22.0865123272 -19.8576180935 -10.1686041101 -5.2382006414 1
-18.844448328 -19.8576180935 -8.0971348996 -3.527562983 1
-15.6023843288 -19.8576180935 -5.4402364305 -1.1172890984 1
-12.3603203297 -19.8576180935 -3.4167407709 1.7303602759 1
-9.1182563305 -19.8576180935 -1.9471778755 3.3178805448 1
-5.8761923313 -19.8576180935 -0.5308381103 2.9696797773 1
-2.6341283321 -19.8576180935 -0.2158363677 1.1809559434 1
0.607935667 -19.8576180935 -0.0682015654 -0.1090829957 1
3.8499996662 -19.8576180935 0.1336011208 0.5813129383 1
7.0920636654 -19.8576180935 0.4959385929 1.4888849886 1
10.3341276646 -19.8576180935 0.4416890906 1.0037830108 1
13.5761916637 -19.8576180935 0.6999571136 -0.6194589223 1
16.8182556629 -19.8576180935 1.5004559613 -2.1903816225 1
20.0603196621 -19.8576180935 1.9256979629 -2.9678373349 1
23.3023836613 -19.8576180935 0.9271281853 -2.392527922 1
26.5444476604 -19.8576180935 -0.338558479 -1.5542066952 1
29.7865116596 -19.8576180935 -0.2136596958 -1.2450881545 1
33.0285756588 -19.8576180935 0 -0 0
36.270639658 -19.8576180935 0 -0 0
39.5127036572 -19.8576180935 0 -0 0
42.7547676563 -19.8576180935 0 -0 0
-35.0547683239 -23.0996820927 0 -0 0
-31.8127043247 -23.0996820927 0 -0 0
-28.5706403255 -23.0996820927 0 -0 0
-25.3285763264 -23.0996820927 0 -0 0
-22.0865123272 -23.0996820927 -11.5324341555 -2.3727378207 1
-18.844448328 -23.0996820927 -9.3236332427 -1.8873022738 1
-15.6023843288 -23.0996820927 -6.6717379315 -1.3069412415 1
-12.3603203297 -23.0996820927 -4.0290068235 -0.1576898202 1
-9.1182563305 -23.0996820927 -1.6897666093 0.5876942291 1
-5.8761923313 -23.0996820927 -0.0997043203 0.5952607129 1
-2.6341283321 -23.0996820927 -0.3131466188 -0.0742843973 1
0.607935667 -23.0996820927 -1.1604615654 -0.2446186979 1
3.8499996662 -23.0996820927 -2.3612141018 1.0802124375 1
7.0920636654 -23.0996820927 -3.232533978 2.4474708689 1
10.3341276646 -23.0996820927 -3.0011589101 2.6319892646 1
13.5761916637 -23.0996820927 -1.2043854873 1.1082175157 1
16.8182556629 -23.0996820927 1.175270324 -0.7484265268 1
20.0603196621 -23.0996820927 1.8266420792 -1.728118668 1
23.3023836613 -23.0996820927 0.4154811636 -1.4021386246 1
26.5444476604 -23.0996820927 -1.1980057816 -0.5105106677 1
29.7865116596 -23.0996820927 0 -0 0
33.0285756588 -23.0996820927 0 -0 0
36.270639658 -23.0996820927 0 -0 0
39.5127036572 -23.0996820927 0 -0 0
42.7547676563 -23.0996820927 0 -0 0
-35.0547683239 -26.3417460918 0 -0 0
-31.8127043247 -26.3417460918 0 -0 0
-28.5706403255 -26.3417460918 0 -0 0
-25.3285763264 -26.3417460918 0 -0 0
-22.0865123272 -26.3417460918 0 -0 0
-18.844448328 -26.3417460918 -9.7237355081 -2.592210687 1
-15.6023843288 -26.3417460918 -7.3406338738 -2.3898504625 1
-12.3603203297 -26.3417460918 -4.5266631194 -1.8973493516 1
-9.1182563305 -26.3417460918 -1.9850984608 -1.6206396947 1
-5.8761923313 -26.3417460918 -0.6629362362 -1.2722049231 1
-2.6341283321 -26.3417460918 -1.0398419805 -0.9323177916 1
0.607935667 -26.3417460918 -2.29498144 -0.2694610413 1
3.8499996662 -26.3417460918 -4.3076555438 1.126970526 1
7.0920636654 -26.3417460918 -5.8503733942 2.546443115 1
10.3341276646 -26.3417460918 -5.3805463714 3.1681499484 1
13.5761916637 -26.3417460918 -2.9085228901 2.1976840591 1
16.8182556629 -26.3417460918 -0.1965958929 0.2763404589 1
20.0603196621 -26.3417460918 0.7384772778 -0.8791236854 1
23.3023836613 -26.3417460918 0.1302864815 -1.1100157237 1
26.5444476604 -26.3417460918 0 -0 0
29.7865116596 -26.3417460918 0 -0 0
33.0285756588 -26.3417460918 0 -0 0
36.270639658 -26.3417460918 0 -0 0
39.5127036572 -26.3417460918 0 -0 0
42.7547676563 -26.3417460918 0 -0 0
-35.0547683239 -29.583810091 0 -0 0
-31.8127043247 -29.583810091 0 -0 0
-28.5706403255 -29.583810091 0 -0 0
-25.3285763264 -29.583810091 0 -0 0
-22.0865123272 -29.583810091 0 -0 0
-18.844448328 -29.583810091 0 -0 0
-15.6023843288 -29.583810091 -7.4893547805 -2.9111854035 1
-12.3603203297 -29.583810091 -4.8950148074 -2.9624437677 1
-9.1182563305 -29.583810091 -2.8558342327 -3.2333401598 1
-5.8761923313 -29.583810091 -1.9520733915 -3.0805512056 1
-2.6341283321 -29.583810091 -2.3204572362 -2.2759492099 1
0.607935667 -29.583810091 -3.4210479554 -1.0856103074 1
3.8499996662 -29.583810091 -5.1090690454 0.1470958616 1
7.0920636654 -29.583810091 -6.1065501757 1.0638812937 1
10.3341276646 -29.583810091 -5.2245656019 1.7331172967 1
13.5761916637 -29.583810091 -3.2681421503 1.6150892692 1
16.8182556629 -29.583810091 -1.1978625107 0.5274506372 1
20.0603196621 -29.583810091 -0.177507332 -0.5853391292 1
23.3023836613 -29.583810091 0 -0 0
26.5444476604 -29.583810091 0 -0 0
29.7865116596 -29.583810091 0 -0 0
33.0285756588 -29.583810091 0 -0 0
36.270639658 -29.583810091 0 -0 0
39.5127036572 -29.583810091 0 -0 0
42.7547676563 -29.583810091 0 -0 0
-35.0547683239 -32.8258740902 0 -0 0
-31.8127043247 -32.8258740902 0 -0 0
-28.5706403255 -32.8258740902 0 -0 0
-25.3285763264 -32.8258740902 0 -0 0
-22.0865123272 -32.8258740902 0 -0 0
-18.844448328 -32.8258740902 0 -0 0
-15.6023843288 -32.8258740902 0 -0 0
-12.3603203297 -32.8258740902 0 -0 0
-9.1182563305 -32.8258740902 -3.7325659437 -4.4644334369 1
-5.8761923313 -32.8258740902 -2.6089514889 -4.5825740883 1
-2.6341283321 -32.8258740902 -2.1852199457 -3.654987406 1
0.607935667 -32.8258740902 -2.8904052386 -2.1536206406 1
3.8499996662 -32.8258740902 -4.3435170443 -1.0966294079 1
7.0920636654 -32.8258740902 -4.8154507076 -0.7661264433 1
10.3341276646 -32.8258740902 -3.7124708822 -0.5755288861 1
13.5761916637 -32.8258740902 -2.3748746552 -0.0873200137 1
16.8182556629 -32.8258740902 -1.598232975 -0.0458291585 1
20.0603196621 -32.8258740902 0 -0 0
23.3023836613 -32.8258740902 0 -0 0
26.5444476604 -32.8258740902 0 -0 0
29.7865116596 -32.8258740902 0 -0 0
33.0285756588 -32.8258740902 0 -0 0
36.270639658 -32.8258740902 0 -0 0
39.5127036572 -32.8258740902 0 -0 0
42.7547676563 -32.8258740902 0 -0 0
-35.0547683239 -36.0679380894 0 -0 0
-31.8127043247 -36.0679380894 0 -0 0
-28.5706403255 -36.0679380894 0 -0 0
-25.3285763264 -36.0679380894 0 -0 0
-22.0865123272 -36.0679380894 0 -0 0
-18.844448328 -36.0679380894 0 -0 0
-15.6023843288 -36.0679380894 0 -0 0
-12.3603203297 -36.0679380894 0 -0 0
-9.1182563305 -36.0679380894 0 -0 0
-5.8761923313 -36.0679380894 0 -0 0
-2.6341283321 -36.0679380894 0 -0 0
0.607935667 -36.0679380894 0 -0 0
3.8499996662 -36.0679380894 0 -0 0
7.0920636654 -36.0679380894 0 -0 0
10.3341276646 -36.0679380894 0 -0 0
13.5761916637 -36.0679380894 0 -0 0
16.8182556629 -36.0679380894 0 -0 0
20.0603196621 -36.0679380894 0 -0 0
23.3023836613 -36.0679380894 0 -0 0
26.5444476604 -36.0679380894 0 -0 0
29.7865116596 -36.0679380894 0 -0 0
33.0285756588 -36.0679380894 0 -0 0
36.270639658 -36.0679380894 0 -0 0
39.5127036572 -36.0679380894 0 -0 0
42.7547676563 -36.0679380894 0 -0 0
-35.0547683239 -39.3100020885 0 -0 0
-31.8127043247 -39.3100020885 0 -0 0
-28.5706403255 -39.3100020885 0 -0 0
-25.3285763264 -39.3100020885 0 -0 0
-22.0865123272 -39.3100020885 0 -0 0
-18.844448328 -39.3100020885 0 -0 0
-15.6023843288 -39.3100020885 0 -0 0
-12.3603203297 -39.3100020885 0 -0 0
-9.1182563305 -39.3100020885 0 -0 0
-5.8761923313 -39.3100020885 0 -0 0
-2.6341283321 -39.3100020885 0 -0 0
0.607935667 -39.3100020885 0 -0 0
3.8499996662 -39.3100020885 0 -0 0
7.0920636654 -39.3100020885 0 -0 0
10.3341276646 -39.3100020885 0 -0 0
13.5761916637 -39.3100020885 0 -0 0
16.8182556629 -39.3100020885 0 -0 0
20.0603196621 -39.3100020885 0 -0 0
23.3023836613 -39.3100020885 0 -0 0
26.5444476604 -39.3100020885 0 -0 0
29.7865116596 -39.3100020885 0 -0 0
33.0285756588 -39.3100020885 0 -0 0
36.270639658 -39.3100020885 0 -0 0
39.5127036572 -39.3100020885 0 -0 0
42.7547676563 -39.3100020885 0 -0 0
-35.0547683239 -42.5520660877 0 -0 0
-31.8127043247 -42.5520660877 0 -0 0
-28.5706403255 -42.5520660877 0 -0 0
-25.3285763264 -42.5520660877 0 -0 0
-22.0865123272 -42.5520660877 0 -0 0
-18.844448328 -42.5520660877 0 -0 0
-15.6023843288 -42.5520660877 0 -0 0
-12.3603203297 -42.5520660877 0 -0 0
-9.1182563305 -42.5520660877 0 -0 0
-5.8761923313 -42.5520660877 0 -0 0
-2.6341283321 -42.5520660877 0 -0 0
0.607935667 -42.5520660877 0 -0 0
3.8499996662 -42.5520660877 0 -0 0
7.0920636654 -42.5520660877 0 -0 0
10.3341276646 -42.5520660877 0 -0 0
13.5761916637 -42.5520660877 0 -0 0
16.8182556629 -42.5520660877 0 -0 0
20.0603196621 -42.5520660877 0 -0 0
23.3023836613 -42.5520660877 0 -0 0
26.5444476604 -42.5520660877 0 -0 0
29.7865116596 -42.5520660877 0 -0 0
33.0285756588 -42.5520660877 0 -0 0
36.270639658 -42.5520660877 0 -0 0
39.5127036572 -42.5520660877 0 -0 0
42.7547676563 -42.5520660877 0 -0 0
