TITLE = "B00070"
VARIABLES = "x", "y", "Vx", "Vy", "isValid"
ZONE T="Frame 0", I=25, J=25, F=POINT
-35.0547683239 35.2574698925 0 -0 0
-31.8127043247 35.2574698925 0 -0 0
-28.5706403255 35.2574698925 0 -0 0
-25.3285763264 35.2574698925 0 -0 0
-22.0865123272 35.2574698925 0 -0 0
-18.844448328 35.2574698925 0 -0 0
-15.6023843288 35.2574698925 0 -0 0
-12.3603203297 35.2574698925 0 -0 0
-9.1182563305 35.2574698925 0 -0 0
-5.8761923313 35.2574698925 0 -0 0
-2.6341283321 35.2574698925 0 -0 0
0.607935667 35.2574698925 0 -0 0
3.8499996662 35.2574698925 0 -0 0
7.0920636654 35.2574698925 0 -0 0
10.3341276646 35.2574698925 0 -0 0
13.5761916637 35.2574698925 0 -0 0
16.8182556629 35.2574698925 0 -0 0
20.0603196621 35.2574698925 0 -0 0
23.3023836613 35.2574698925 0 -0 0
26.5444476604 35.2574698925 0 -0 0
29.7865116596 35.2574698925 0 -0 0
33.0285756588 35.2574698925 0 -0 0
36.270639658 35.2574698925 0 -0 0
39.5127036572 35.2574698925 0 -0 0
42.7547676563 35.2574698925 0 -0 0
-35.0547683239 32.0154058933 0 -0 0
-31.8127043247 32.0154058933 0 -0 0
-28.5706403255 32.0154058933 0 -0 0
-25.3285763264 32.0154058933 0 -0 0
-22.0865123272 32.0154058933 0 -0 0
-18.844448328 32.0154058933 0 -0 0
-15.6023843288 32.0154058933 0 -0 0
-12.3603203297 32.0154058933 0 -0 0
-9.1182563305 32.0154058933 0 -0 0
-5.8761923313 32.0154058933 0 -0 0
-2.6341283321 32.0154058933 0 -0 0
0.607935667 32.0154058933 0 -0 0
3.8499996662 32.0154058933 0 -0 0
7.0920636654 32.0154058933 0 -0 0
10.3341276646 32.0154058933 0 -0 0
13.5761916637 32.0154058933 0 -0 0
16.8182556629 32.0154058933 0 -0 0
20.0603196621 32.0154058933 0 -0 0
23.3023836613 32.0154058933 0 -0 0
26.5444476604 32.0154058933 0 -0 0
29.7865116596 32.0154058933 0 -0 0
33.0285756588 32.0154058933 0 -0 0
36.270639658 32.0154058933 0 -0 0
39.5127036572 32.0154058933 0 -0 0
42.7547676563 32.0154058933 0 -0 0
-35.0547683239 28.7733418941 0 -0 0
-31.8127043247 28.7733418941 0 -0 0
-28.5706403255 28.7733418941 0 -0 0
-25.3285763264 28.7733418941 0 -0 0
-22.0865123272 28.7733418941 0 -0 0
-18.844448328 28.7733418941 0 -0 0
-15.6023843288 28.7733418941 0 -0 0
-12.3603203297 28.7733418941 0 -0 0
-9.1182563305 28.7733418941 0 -0 0
-5.8761923313 28.7733418941 0 -0 0
-2.6341283321 28.7733418941 0 -0 0
0.607935667 28.7733418941 0 -0 0
3.8499996662 28.7733418941 0 -0 0
7.0920636654 28.7733418941 0 -0 0
10.3341276646 28.7733418941 0 -0 0
13.5761916637 28.7733418941 0 -0 0
16.8182556629 28.7733418941 0 -0 0
20.0603196621 28.7733418941 0 -0 0
23.3023836613 28.7733418941 0 -0 0
26.5444476604 28.7733418941 0 -0 0
29.7865116596 28.7733418941 0 -0 0
33.0285756588 28.7733418941 0 -0 0
36.270639658 28.7733418941 0 -0 0
39.5127036572 28.7733418941 0 -0 0
42.7547676563 28.7733418941 0 -0 0
-35.0547683239 25.531277895 0 -0 0
-31.8127043247 25.531277895 0 -0 0
-28.5706403255 25.531277895 0 -0 0
-25.3285763264 25.531277895 0 -0 0
-22.0865123272 25.531277895 0 -0 0
-18.844448328 25.531277895 0 -0 0
-15.6023843288 25.531277895 0 -0 0
-12.3603203297 25.531277895 0 -0 0
-9.1182563305 25.531277895 1.0420954397 1.7145595666 1
-5.8761923313 25.531277895 2.3588930834 1.284207369 1
-2.6341283321 25.531277895 3.3736296735 2.4336637232 1
0.607935667 25.531277895 2.2824228192 1.8048573574 1
3.8499996662 25.531277895 0.7166613051 0.4952488093 1
7.0920636654 25.531277895 0.1243636122 -0.8506778492 1
10.3341276646 25.531277895 0.6859107554 0.885718071 1
13.5761916637 25.531277895 0.7928332519 3.5134499713 1
16.8182556629 25.531277895 0 -0 0
20.0603196621 25.531277895 0 -0 0
23.3023836613 25.531277895 0 -0 0
26.5444476604 25.531277895 0 -0 0
29.7865116596 25.531277895 0 -0 0
33.0285756588 25.531277895 0 -0 0
36.270639658 25.531277895 0 -0 0
39.5127036572 25.531277895 0 -0 0
42.7547676563 25.531277895 0 -0 0
-35.0547683239 22.2892138958 0 -0 0
-31.8127043247 22.2892138958 0 -0 0
-28.5706403255 22.2892138958 0 -0 0
-25.3285763264 22.2892138958 0 -0 0
-22.0865123272 22.2892138958 0 -0 0
-18.844448328 22.2892138958 0 -0 0
-15.6023843288 22.2892138958 1.2630928047 3.8857341353 1
-12.3603203297 22.2892138958 1.3815316227 3.7056388693 1
-9.1182563305 22.2892138958 0.9913092353 2.0629128142 1
-5.8761923313 22.2892138958 1.0672179652 0.8587247961 1
-2.6341283321 22.2892138958 1.7391914384 1.5322592274 1
0.607935667 22.2892138958 1.8898322352 2.4872207621 1
3.8499996662 22.2892138958 1.4221414431 1.2505101797 1
7.0920636654 22.2892138958 1.8075690871 -0.3760469117 1
10.3341276646 22.2892138958 2.335216552 -0.4429881151 1
13.5761916637 22.2892138958 2.2970405248 0.9427185175 1
16.8182556629 22.2892138958 1.4902047715 0.7113090283 1
20.0603196621 22.2892138958 1.371942287 -1.0858760152 1
23.3023836613 22.2892138958 0 -0 0
26.5444476604 22.2892138958 0 -0 0
29.7865116596 22.2892138958 0 -0 0
33.0285756588 22.2892138958 0 -0 0
36.270639658 22.2892138958 0 -0 0
39.5127036572 22.2892138958 0 -0 0
42.7547676563 22.2892138958 0 -0 0
-35.0547683239 19.0471498966 0 -0 0
-31.8127043247 19.0471498966 0 -0 0
-28.5706403255 19.0471498966 0 -0 0
-25.3285763264 19.0471498966 0 -0 0
-22.0865123272 19.0471498966 0 -0 0
-18.844448328 19.0471498966 0.1951050794 3.2939746894 1
-15.6023843288 19.0471498966 1.524151062 4.3674832878 1
-12.3603203297 19.0471498966 1.9925727016 3.9046126776 1
-9.1182563305 19.0471498966 1.5674872563 1.7497531742 1
-5.8761923313 19.0471498966 0.6086330639 -0.1007714449 1
-2.6341283321 19.0471498966 0.3158026215 0.1614730715 1
0.607935667 19.0471498966 0.8527321785 1.0928011013 1
3.8499996662 19.0471498966 1.4887990865 0.4973836058 1
7.0920636654 19.0471498966 2.6356542212 -0.5914409739 1
10.3341276646 19.0471498966 3.4537574967 -0.9824598809 1
13.5761916637 19.0471498966 3.2297857135 -1.3805857933 1
16.8182556629 19.0471498966 2.4692063743 -2.4934645945 1
20.0603196621 19.0471498966 1.6944424635 -3.4192631838 1
23.3023836613 19.0471498966 1.2894179602 -2.8535449181 1
26.5444476604 19.0471498966 0 -0 0
29.7865116596 19.0471498966 0 -0 0
33.0285756588 19.0471498966 0 -0 0
36.270639658 19.0471498966 0 -0 0
39.5127036572 19.0471498966 0 -0 0
42.7547676563 19.0471498966 0 -0 0
-35.0547683239 15.8050858974 0 -0 0
-31.8127043247 15.8050858974 0 -0 0
-28.5706403255 15.8050858974 0 -0 0
-25.3285763264 15.8050858974 0 -0 0
-22.0865123272 15.8050858974 -0.0607560419 5.0262056392 1
-18.844448328 15.8050858974 0.4360743518 4.7460749937 1
-15.6023843288 15.8050858974 1.8140298639 4.7067306069 1
-12.3603203297 15.8050858974 2.5480062622 3.7294257601 1
-9.1182563305 15.8050858974 2.41976207 1.6784405106 1
-5.8761923313 15.8050858974 1.1925140081 -0.159463354 1
-2.6341283321 15.8050858974 0.3433911536 -0.2310616912 1
0.607935667 15.8050858974 0.4418222088 0.5781136875 1
3.8499996662 15.8050858974 1.0255506728 0.5789983361 1
7.0920636654 15.8050858974 1.6300976861 0.2273364031 1
10.3341276646 15.8050858974 2.4594841847 -0.5605737618 1
13.5761916637 15.8050858974 2.6707578505 -2.4020547559 1
16.8182556629 15.8050858974 2.1661620507 -3.8205137299 1
20.0603196621 15.8050858974 0.736129915 -3.6463383138 1
23.3023836613 15.8050858974 -0.2038467542 -1.2309197367 1
26.5444476604 15.8050858974 -0.398609546 0.4785532608 1
29.7865116596 15.8050858974 0 -0 0
33.0285756588 15.8050858974 0 -0 0
36.270639658 15.8050858974 0 -0 0
39.5127036572 15.8050858974 0 -0 0
42.7547676563 15.8050858974 0 -0 0
-35.0547683239 12.5630218983 0 -0 0
-31.8127043247 12.5630218983 0 -0 0
-28.5706403255 12.5630218983 0 -0 0
-25.3285763264 12.5630218983 0 -0 0
-22.0865123272 12.5630218983 0.6761038714 6.1722373815 1
-18.844448328 12.5630218983 0.5993853742 5.6419769216 1
-15.6023843288 12.5630218983 1.4615498414 4.7977430915 1
-12.3603203297 12.5630218983 2.1835881071 3.5366755542 1
-9.1182563305 12.5630218983 2.2964114313 2.165090614 1
-5.8761923313 12.5630218983 1.5069467811 0.9382503231 1
-2.6341283321 12.5630218983 0.6490357153 0.8386212049 1
0.607935667 12.5630218983 0.1312929538 1.4425133842 1
3.8499996662 12.5630218983 -0.0753880237 1.8931001397 1
7.0920636654 12.5630218983 -0.2552341225 1.8566912207 1
10.3341276646 12.5630218983 0.5044390925 0.694061117 1
13.5761916637 12.5630218983 1.3371149335 -1.3714410654 1
16.8182556629 12.5630218983 0.9500466945 -2.9350012805 1
20.0603196621 12.5630218983 -0.7722210415 -2.1742996553 1
23.3023836613 12.5630218983 -2.0893825992 0.1369506531 1
26.5444476604 12.5630218983 -1.3305205479 1.3362033744 1
29.7865116596 12.5630218983 0.3991771191 0.5850363959 1
33.0285756588 12.5630218983 0 -0 0
36.270639658 12.5630218983 0 -0 0
39.5127036572 12.5630218983 0 -0 0
42.7547676563 12.5630218983 0 -0 0
-35.0547683239 9.3209578991 0 -0 0
-31.8127043247 9.3209578991 0 -0 0
-28.5706403255 9.3209578991 0 -0 0
-25.3285763264 9.3209578991 1.87709245 4.7989997688 1
-22.0865123272 9.3209578991 1.3885774096 5.1021618493 1
-18.844448328 9.3209578991 1.298247462 4.2921125408 1
-15.6023843288 9.3209578991 1.7826087038 3.2750472328 1
-12.3603203297 9.3209578991 1.8538226327 2.5834981872 1
-9.1182563305 9.3209578991 1.1748667047 2.5872193048 1
-5.8761923313 9.3209578991 0.4044556469 2.4349145126 1
-2.6341283321 9.3209578991 -0.015476543 2.3915487282 1
0.607935667 9.3209578991 -0.6312316669 2.7546958638 1
3.8499996662 9.3209578991 -1.3225207793 3.0646775776 1
7.0920636654 9.3209578991 -1.5914429319 2.6761577585 1
10.3341276646 9.3209578991 -0.5623558915 1.182750981 1
13.5761916637 9.3209578991 0.5355768436 -0.6962104066 1
16.8182556629 9.3209578991 -0.2645011553 -1.8791803701 1
20.0603196621 9.3209578991 -2.1765669283 -1.2969140918 1
23.3023836613 9.3209578991 -3.2134181104 0.1743408418 1
26.5444476604 9.3209578991 -1.7537511714 0.6314528007 1
29.7865116596 9.3209578991 0.2941667 -0.230300159 1
33.0285756588 9.3209578991 0 -0 0
36.270639658 9.3209578991 0 -0 0
39.5127036572 9.3209578991 0 -0 0
42.7547676563 9.3209578991 0 -0 0
-35.0547683239 6.0788938999 0 -0 0
-31.8127043247 6.0788938999 0 -0 0
-28.5706403255 6.0788938999 0 -0 0
-25.3285763264 6.0788938999 1.8984251664 2.5171415788 1
-22.0865123272 6.0788938999 1.542597678 2.3455270731 1
-18.844448328 6.0788938999 1.7783273352 1.6435752635 1
-15.6023843288 6.0788938999 2.3677135269 0.9063503604 1
-12.3603203297 6.0788938999 1.8831739892 0.872981758 1
-9.1182563305 6.0788938999 0.3203137481 1.6682866967 1
-5.8761923313 6.0788938999 -1.100077722 2.5507352025 1
-2.6341283321 6.0788938999 -1.5681207279 3.0740754828 1
0.607935667 6.0788938999 -1.8561587482 3.3192589042 1
3.8499996662 6.0788938999 -2.1373559992 3.2875865294 1
7.0920636654 6.0788938999 -1.5600110528 2.6053753029 1
10.3341276646 6.0788938999 -0.4715385738 1.1323061961 1
13.5761916637 6.0788938999 0.1294743364 -0.6490828935 1
16.8182556629 6.0788938999 -1.064847504 -1.9367192525 1
20.0603196621 6.0788938999 -2.5337362413 -1.8400381326 1
23.3023836613 6.0788938999 -2.7073213632 -1.0278545561 1
26.5444476604 6.0788938999 -1.3815627226 -0.6391309271 1
29.7865116596 6.0788938999 0.0067462953 -0.9947285631 1
33.0285756588 6.0788938999 0.6291868488 -1.3612858928 1
36.270639658 6.0788938999 0 -0 0
39.5127036572 6.0788938999 0 -0 0
42.7547676563 6.0788938999 0 -0 0
-35.0547683239 2.8368299007 0 -0 0
-31.8127043247 2.8368299007 0 -0 0
-28.5706403255 2.8368299007 1.7031733816 0.3551896386 1
-25.3285763264 2.8368299007 1.3679901848 0.0215722569 1
-22.0865123272 2.8368299007 1.3806845279 -0.4796740648 1
-18.844448328 2.8368299007 1.993936115 -0.5262539706 1
-15.6023843288 2.8368299007 2.6897278808 -0.1827189611 1
-12.3603203297 2.8368299007 2.0668226447 0.4927092991 1
-9.1182563305 2.8368299007 0.0054580151 1.3623672935 1
-5.8761923313 2.8368299007 -2.1772669779 2.1596368096 1
-2.6341283321 2.8368299007 -3.3265054818 2.7914094411 1
0.607935667 2.8368299007 -3.2075885407 3.1633167831 1
3.8499996662 2.8368299007 -2.1729877229 3.0056934559 1
7.0920636654 2.8368299007 -0.6895177393 2.3150657825 1
10.3341276646 2.8368299007 0.1266508509 0.8407747971 1
13.5761916637 2.8368299007 0.0566693119 -0.9552341872 1
16.8182556629 2.8368299007 -1.081142113 -2.3065007808 1
20.0603196621 2.8368299007 -2.0554686164 -2.2278062702 1
23.3023836613 2.8368299007 -1.7399515742 -1.5382261801 1
26.5444476604 2.8368299007 -0.9405413738 -0.9917505217 1
29.7865116596 2.8368299007 -0.3628892782 -0.5413698029 1
33.0285756588 2.8368299007 -0.4019478027 -0.0119087099 1
36.270639658 2.8368299007 0 -0 0
39.5127036572 2.8368299007 0 -0 0
42.7547676563 2.8368299007 0 -0 0
-35.0547683239 -0.4052340984 0 -0 0
-31.8127043247 -0.4052340984 0 -0 0
-28.5706403255 -0.4052340984 0.8390219557 -1.9069270626 1
-25.3285763264 -0.4052340984 0.7137331594 -2.6221188222 1
-22.0865123272 -0.4052340984 0.8963232862 -2.7561343094 1
-18.844448328 -0.4052340984 1.5046428224 -1.414098195 1
-15.6023843288 -0.4052340984 1.9870867405 0.2249165935 1
-12.3603203297 -0.4052340984 1.7176106776 1.241045621 1
-9.1182563305 -0.4052340984 -0.2485114499 1.6305830558 1
-5.8761923313 -0.4052340984 -2.8998399806 1.7874740257 1
-2.6341283321 -0.4052340984 -4.5489590268 2.1600942498 1
0.607935667 -0.4052340984 -3.8648736542 2.4921291106 1
3.8499996662 -0.4052340984 -1.5094566635 2.2819913459 1
7.0920636654 -0.4052340984 0.420516214 1.870535958 1
10.3341276646 -0.4052340984 1.1310329121 0.7699472768 1
13.5761916637 -0.4052340984 0.9808366475 -0.834015552 1
16.8182556629 -0.4052340984 0.1009281804 -2.2678910157 1
20.0603196621 -0.4052340984 -0.8690310146 -2.4366278753 1
23.3023836613 -0.4052340984 -0.9453509123 -1.8728527492 1
26.5444476604 -0.4052340984 -0.6678338658 -1.0341499448 1
29.7865116596 -0.4052340984 -0.2489236934 0.2174188013 1
33.0285756588 -0.4052340984 -0.3100397241 1.4653769401 1
36.270639658 -0.4052340984 0 -0 0
39.5127036572 -0.4052340984 0 -0 0
42.7547676563 -0.4052340984 0 -0 0
-35.0547683239 -3.6472980976 0 -0 0
-31.8127043247 -3.6472980976 0 -0 0
-28.5706403255 -3.6472980976 -0.3925913388 -4.1043923656 1
-25.3285763264 -3.6472980976 -0.5383831185 -5.2706798018 1
-22.0865123272 -3.6472980976 -0.4458480977 -5.3324635179 1
-18.844448328 -3.6472980976 -0.145567098 -3.0707239407 1
-15.6023843288 -3.6472980976 0.0228562433 -0.0045390414 1
-12.3603203297 -3.6472980976 0.1118506599 1.6880832897 1
-9.1182563305 -3.6472980976 -1.4135463983 1.8931280692 1
-5.8761923313 -3.6472980976 -3.8850759045 1.693313658 1
-2.6341283321 -3.6472980976 -5.1367195697 1.7773546331 1
0.607935667 -3.6472980976 -3.5188136464 1.9382931185 1
3.8499996662 -3.6472980976 -0.3533388174 1.5888856449 1
7.0920636654 -3.6472980976 1.7343733702 1.5596094717 1
10.3341276646 -3.6472980976 2.6464778906 1.0252973446 1
13.5761916637 -3.6472980976 2.8986633175 -0.2972900315 1
16.8182556629 -3.6472980976 2.2744419218 -1.9284570973 1
20.0603196621 -3.6472980976 1.2150267089 -2.6827451994 1
23.3023836613 -3.6472980976 0.3967796342 -2.5476883186 1
26.5444476604 -3.6472980976 0.196982377 -1.6875936929 1
29.7865116596 -3.6472980976 0.5440730406 0.0305301 1
33.0285756588 -3.6472980976 0.9338472724 1.6663385751 1
36.270639658 -3.6472980976 0 -0 0
39.5127036572 -3.6472980976 0 -0 0
42.7547676563 -3.6472980976 0 -0 0
-35.0547683239 -6.8893620968 0 -0 0
-31.8127043247 -6.8893620968 0 -0 0
-28.5706403255 -6.8893620968 -1.8300220037 -5.0167944486 1
-25.3285763264 -6.8893620968 -2.2063240931 -5.7759751983 1
-22.0865123272 -6.8893620968 -2.3223552356 -5.4460856263 1
-18.844448328 -6.8893620968 -2.2058989605 -3.6559744503 1
-15.6023843288 -6.8893620968 -2.18663484 -0.6249491484 1
-12.3603203297 -6.8893620968 -1.9743907367 1.2748221453 1
-9.1182563305 -6.8893620968 -2.9193381052 1.7376713178 1
-5.8761923313 -6.8893620968 -4.4274870633 1.8256071773 1
-2.6341283321 -6.8893620968 -4.4326122053 1.9235615813 1
0.607935667 -6.8893620968 -2.136063391 1.8346057659 1
3.8499996662 -6.8893620968 0.7265729625 1.1943132729 1
7.0920636654 -6.8893620968 2.370448959 1.0574571272 1
10.3341276646 -6.8893620968 3.5330426033 0.730016974 1
13.5761916637 -6.8893620968 4.3668220376 -0.2502978634 1
16.8182556629 -6.8893620968 4.1113967866 -1.7209623707 1
20.0603196621 -6.8893620968 3.2953892818 -2.907260476 1
23.3023836613 -6.8893620968 2.2457885014 -3.4413770209 1
26.5444476604 -6.8893620968 1.7371581695 -3.2106955108 1
29.7865116596 -6.8893620968 1.8251154669 -1.8183950211 1
33.0285756588 -6.8893620968 2.4613156062 -0.0738907515 1
36.270639658 -6.8893620968 0 -0 0
39.5127036572 -6.8893620968 0 -0 0
42.7547676563 -6.8893620968 0 -0 0
-35.0547683239 -10.131426096 0 -0 0
-31.8127043247 -10.131426096 0 -0 0
-28.5706403255 -10.131426096 -3.1497641734 -3.9802708721 1
-25.3285763264 -10.131426096 -3.6089770737 -2.85118193 1
-22.0865123272 -10.131426096 -3.6525456113 -2.7393844494 1
-18.844448328 -10.131426096 -3.7200643897 -2.0957724199 1
-15.6023843288 -10.131426096 -3.9751889077 -0.8515941638 1
-12.3603203297 -10.131426096 -3.923327266 0.7546468077 1
-9.1182563305 -10.131426096 -3.7534545053 1.6752326923 1
-5.8761923313 -10.131426096 -3.3978782316 2.2377645774 1
-2.6341283321 -10.131426096 -2.0953731033 2.4852841143 1
0.607935667 -10.131426096 0.0212845404 2.0859363987 1
3.8499996662 -10.131426096 1.4430931104 0.9668694732 1
7.0920636654 -10.131426096 2.0757224987 0.2986727879 1
10.3341276646 -10.131426096 3.1709927203 -0.3592735002 1
13.5761916637 -10.131426096 4.3487753421 -1.3329665698 1
16.8182556629 -10.131426096 4.5647447902 -2.6304711066 1
20.0603196621 -10.131426096 3.9208063628 -3.6148525384 1
23.3023836613 -10.131426096 3.075872634 -4.1046484113 1
26.5444476604 -10.131426096 2.8695136575 -4.1402499409 1
29.7865116596 -10.131426096 3.1009663242 -3.3254384232 1
33.0285756588 -10.131426096 3.6581140023 -1.749382391 1
36.270639658 -10.131426096 0 -0 0
39.5127036572 -10.131426096 0 -0 0
42.7547676563 -10.131426096 0 -0 0
-35.0547683239 -13.3734900951 0 -0 0
-31.8127043247 -13.3734900951 0 -0 0
-28.5706403255 -13.3734900951 0 -0 0
-25.3285763264 -13.3734900951 -3.8334506824 0.4741618349 1
-22.0865123272 -13.3734900951 -3.5500177112 0.1904872922 1
-18.844448328 -13.3734900951 -3.924830025 0.0829609708 1
-15.6023843288 -13.3734900951 -5.1396954975 0.7024628442 1
-12.3603203297 -13.3734900951 -5.5273928301 1.9633158527 1
-9.1182563305 -13.3734900951 -4.1762467108 2.4805946728 1
-5.8761923313 -13.3734900951 -1.7113023809 2.493696485 1
-2.6341283321 -13.3734900951 0.5049200464 2.4075771009 1
0.607935667 -13.3734900951 1.9022555865 1.6612226424 1
3.8499996662 -13.3734900951 2.0274871651 0.3363141913 1
7.0920636654 -13.3734900951 1.7374652433 -0.7005970015 1
10.3341276646 -13.3734900951 2.4075514359 -1.5098861742 1
13.5761916637 -13.3734900951 3.3313579712 -2.4176880391 1
16.8182556629 -13.3734900951 3.453970063 -3.3918125442 1
20.0603196621 -13.3734900951 2.5271811081 -3.8135077991 1
23.3023836613 -13.3734900951 1.891987941 -3.7625667746 1
26.5444476604 -13.3734900951 2.2985715153 -3.3213909077 1
29.7865116596 -13.3734900951 2.8021902348 -2.4444069253 1
33.0285756588 -13.3734900951 3.3266096513 -1.2414460699 1
36.270639658 -13.3734900951 0 -0 0
39.5127036572 -13.3734900951 0 -0 0
42.7547676563 -13.3734900951 0 -0 0
-35.0547683239 -16.6155540943 0 -0 0
-31.8127043247 -16.6155540943 0 -0 0
-28.5706403255 -16.6155540943 0 -0 0
-25.3285763264 -16.6155540943 -3.1928607777 2.7180233505 1
-22.0865123272 -16.6155540943 -2.5980321043 1.5785579132 1
-18.844448328 -16.6155540943 -2.9856608963 1.1851042316 1
-15.6023843288 -16.6155540943 -4.8931681379 1.7070875903 1
-12.3603203297 -16.6155540943 -5.7930427 2.5697094599 1
-9.1182563305 -16.6155540943 -4.1976449484 2.343188844 1
-5.8761923313 -16.6155540943 -0.7972781214 1.8937787515 1
-2.6341283321 -16.6155540943 2.055445065 1.8415754638 1
0.607935667 -16.6155540943 3.1693459356 1.3029367525 1
3.8499996662 -16.6155540943 2.7464356712 0.0860700168 1
7.0920636654 -16.6155540943 1.883169762 -1.0211726832 1
10.3341276646 -16.6155540943 1.9894808286 -1.7300382561 1
13.5761916637 -16.6155540943 2.3192032763 -2.5493737517 1
16.8182556629 -16.6155540943 1.6755482203 -3.4150061214 1
20.0603196621 -16.6155540943 0.3562138216 -3.4802316599 1
23.3023836613 -16.6155540943 -0.5271708136 -2.9800976383 1
26.5444476604 -16.6155540943 -0.1918270976 -2.059245442 1
29.7865116596 -16.6155540943 0.4300022482 -1.0392673118 1
33.0285756588 -16.6155540943 0 -0 0
36.270639658 -16.6155540943 0 -0 0
39.5127036572 -16.6155540943 0 -0 0
42.7547676563 -16.6155540943 0 -0 0
-35.0547683239 -19.8576180935 0 -0 0
-31.8127043247 -19.8576180935 0 -0 0
-28.5706403255 -19.8576180935 0 -0 0
-25.3285763264 -19.8576180935 0 -0 0
-22.0865123272 -19.8576180935 -2.0726271533 1.6138768262 1
-18.844448328 -19.8576180935 -2.2947903115 0.7933617236 1
-15.6023843288 -19.8576180935 -4.0030565274 1.5323064811 1
-12.3603203297 -19.8576180935 -4.9386766448 2.294380276 1
-9.1182563305 -19.8576180935 -3.9870174358 1.9545855384 1
-5.8761923313 -19.8576180935 -1.0896361586 1.3711211592 1
-2.6341283321 -19.8576180935 1.8008635874 1.3636212534 1
0.607935667 -19.8576180935 2.9223116175 1.3402131473 1
3.8499996662 -19.8576180935 2.595440547 0.6852535814 1
7.0920636654 -19.8576180935 1.5037969354 -0.4076699192 1
10.3341276646 -19.8576180935 0.8915329965 -1.3883948864 1
13.5761916637 -19.8576180935 0.6947009294 -2.5610908637 1
16.8182556629 -19.8576180935 0.0547003894 -3.4072613417 1
20.0603196621 -19.8576180935 -0.8860556407 -3.3694351129 1
23.3023836613 -19.8576180935 -2.1752722064 -2.6488161196 1
26.5444476604 -19.8576180935 -2.5579340734 -1.6489904195 1
29.7865116596 -19.8576180935 -2.6112537869 -0.5149650483 1
33.0285756588 -19.8576180935 0 -0 0
36.270639658 -19.8576180935 0 -0 0
39.5127036572 -19.8576180935 0 -0 0
42.7547676563 -19.8576180935 0 -0 0
-35.0547683239 -23.0996820927 0 -0 0
-31.8127043247 -23.0996820927 0 -0 0
-28.5706403255 -23.0996820927 0 -0 0
-25.3285763264 -23.0996820927 0 -0 0
-22.0865123272 -23.0996820927 -2.4793644153 2.1096364815 1
-18.844448328 -23.0996820927 -2.6604725415 1.0395449463 1
-15.6023843288 -23.0996820927 -3.2248085225 1.1959235983 1
-12.3603203297 -23.0996820927 -3.6993618235 1.6252775043 1
-9.1182563305 -23.0996820927 -3.33936242 1.4589625113 1
-5.8761923313 -23.0996820927 -1.8084987627 0.9416192268 1
-2.6341283321 -23.0996820927 0.3389143917 1.0423305005 1
0.607935667 -23.0996820927 1.3717716905 1.5374853685 1
3.8499996662 -23.0996820927 1.3468821122 1.4204193242 1
7.0920636654 -23.0996820927 0.2272376496 0.2617657044 1
10.3341276646 -23.0996820927 -1.0129126416 -1.445504409 1
13.5761916637 -23.0996820927 -1.3327174687 -3.0206890404 1
16.8182556629 -23.0996820927 -1.0922557209 -3.4900012542 1
20.0603196621 -23.0996820927 -1.2208325008 -3.0011244888 1
23.3023836613 -23.0996820927 -2.7849467017 -2.4962602637 1
26.5444476604 -23.0996820927 -4.12659135 -2.2995194582 1
29.7865116596 -23.0996820927 0 -0 0
33.0285756588 -23.0996820927 0 -0 0
36.270639658 -23.0996820927 0 -0 0
39.5127036572 -23.0996820927 0 -0 0
42.7547676563 -23.0996820927 0 -0 0
-35.0547683239 -26.3417460918 0 -0 0
-31.8127043247 -26.3417460918 0 -0 0
-28.5706403255 -26.3417460918 0 -0 0
-25.3285763264 -26.3417460918 0 -0 0
-22.0865123272 -26.3417460918 0 -0 0
-18.844448328 -26.3417460918 -3.2716869344 1.1721505214 1
-15.6023843288 -26.3417460918 -2.9446661014 1.1162441571 1
-12.3603203297 -26.3417460918 -2.9700318402 1.0846806319 1
-9.1182563305 -26.3417460918 -2.6317380499 0.6482755795 1
-5.8761923313 -26.3417460918 -1.849577799 0.2420979646 1
-2.6341283321 -26.3417460918 -0.5020944095 0.7943773768 1
0.607935667 -26.3417460918 0.1927181624 1.855115241 1
3.8499996662 -26.3417460918 0.1287614827 1.795180157 1
7.0920636654 -26.3417460918 -0.9778478117 0.3214925248 1
10.3341276646 -26.3417460918 -2.7015690904 -2.0291190037 1
13.5761916637 -26.3417460918 -3.0134940947 -3.7364470898 1
16.8182556629 -26.3417460918 -2.1338196694 -3.5049859687 1
20.0603196621 -26.3417460918 -1.6701052858 -2.6109261812 1
23.3023836613 -26.3417460918 -2.9498926954 -2.1104379831 1
26.5444476604 -26.3417460918 0 -0 0
29.7865116596 -26.3417460918 0 -0 0
33.0285756588 -26.3417460918 0 -0 0
36.270639658 -26.3417460918 0 -0 0
39.5127036572 -26.3417460918 0 -0 0
42.7547676563 -26.3417460918 0 -0 0
-35.0547683239 -29.583810091 0 -0 0
-31.8127043247 -29.583810091 0 -0 0
-28.5706403255 -29.583810091 0 -0 0
-25.3285763264 -29.583810091 0 -0 0
-22.0865123272 -29.583810091 0 -0 0
-18.844448328 -29.583810091 0 -0 0
-15.6023843288 -29.583810091 -3.4215654819 0.6300657605 1
-12.3603203297 -29.583810091 -3.3253475391 0.3512081349 1
-9.1182563305 -29.583810091 -2.6310508328 -0.150415332 1
-5.8761923313 -29.583810091 -1.7466484686 -0.1440619612 1
-2.6341283321 -29.583810091 -0.9930924218 0.5382264112 1
0.607935667 -29.583810091 -0.6807338306 1.1348397808 1
3.8499996662 -29.583810091 -0.7850008339 0.4765199165 1
7.0920636654 -29.583810091 -1.5702915308 -0.8628881059 1
10.3341276646 -29.583810091 -3.2122091397 -2.5103110756 1
13.5761916637 -29.583810091 -4.1776486216 -3.4978381258 1
16.8182556629 -29.583810091 -3.8278850089 -2.9995870066 1
20.0603196621 -29.583810091 -3.1716349483 -1.8036296664 1
23.3023836613 -29.583810091 0 -0 0
26.5444476604 -29.583810091 0 -0 0
29.7865116596 -29.583810091 0 -0 0
33.0285756588 -29.583810091 0 -0 0
36.270639658 -29.583810091 0 -0 0
39.5127036572 -29.583810091 0 -0 0
42.7547676563 -29.583810091 0 -0 0
-35.0547683239 -32.8258740902 0 -0 0
-31.8127043247 -32.8258740902 0 -0 0
-28.5706403255 -32.8258740902 0 -0 0
-25.3285763264 -32.8258740902 0 -0 0
-22.0865123272 -32.8258740902 0 -0 0
-18.844448328 -32.8258740902 0 -0 0
-15.6023843288 -32.8258740902 0 -0 0
-12.3603203297 -32.8258740902 0 -0 0
-9.1182563305 -32.8258740902 -2.7938666347 -1.1271911692 1
-5.8761923313 -32.8258740902 -1.9151597785 -0.0158141788 1
-2.6341283321 -32.8258740902 -1.7880199346 0.6641122953 1
0.607935667 -32.8258740902 -2.0559689322 0.2080487123 1
3.8499996662 -32.8258740902 -1.9060087098 -1.8802990605 1
7.0920636654 -32.8258740902 -1.8974106456 -2.8615270233 1
10.3341276646 -32.8258740902 -2.9451561512 -3.0444076925 1
13.5761916637 -32.8258740902 -4.6177565242 -2.8609337097 1
16.8182556629 -32.8258740902 -5.4249274316 -2.4879440612 1
20.0603196621 -32.8258740902 0 -0 0
23.3023836613 -32.8258740902 0 -0 0
26.5444476604 -32.8258740902 0 -0 0
29.7865116596 -32.8258740902 0 -0 0
33.0285756588 -32.8258740902 0 -0 0
36.270639658 -32.8258740902 0 -0 0
39.5127036572 -32.8258740902 0 -0 0
42.7547676563 -32.8258740902 0 -0 0
-35.0547683239 -36.0679380894 0 -0 0
-31.8127043247 -36.0679380894 0 -0 0
-28.5706403255 -36.0679380894 0 -0 0
-25.3285763264 -36.0679380894 0 -0 0
-22.0865123272 -36.0679380894 0 -0 0
-18.844448328 -36.0679380894 0 -0 0
-15.6023843288 -36.0679380894 0 -0 0
-12.3603203297 -36.0679380894 0 -0 0
-9.1182563305 -36.0679380894 0 -0 0
-5.8761923313 -36.0679380894 0 -0 0
-2.6341283321 -36.0679380894 0 -0 0
0.607935667 -36.0679380894 0 -0 0
3.8499996662 -36.0679380894 0 -0 0
7.0920636654 -36.0679380894 0 -0 0
10.3341276646 -36.0679380894 0 -0 0
13.5761916637 -36.0679380894 0 -0 0
16.8182556629 -36.0679380894 0 -0 0
20.0603196621 -36.0679380894 0 -0 0
23.3023836613 -36.0679380894 0 -0 0
26.5444476604 -36.0679380894 0 -0 0
29.7865116596 -36.0679380894 0 -0 0
33.0285756588 -36.0679380894 0 -0 0
36.270639658 -36.0679380894 0 -0 0
39.5127036572 -36.0679380894 0 -0 0
42.7547676563 -36.0679380894 0 -0 0
-35.0547683239 -39.3100020885 0 -0 0
-31.8127043247 -39.3100020885 0 -0 0
-28.5706403255 -39.3100020885 0 -0 0
-25.3285763264 -39.3100020885 0 -0 0
-22.0865123272 -39.3100020885 0 -0 0
-18.844448328 -39.3100020885 0 -0 0
-15.6023843288 -39.3100020885 0 -0 0
-12.3603203297 -39.3100020885 0 -0 0
-9.1182563305 -39.3100020885 0 -0 0
-5.8761923313 -39.3100020885 0 -0 0
-2.6341283321 -39.3100020885 0 -0 0
0.607935667 -39.3100020885 0 -0 0
3.8499996662 -39.3100020885 0 -0 0
7.0920636654 -39.3100020885 0 -0 0
10.3341276646 -39.3100020885 0 -0 0
13.5761916637 -39.3100020885 0 -0 0
16.8182556629 -39.3100020885 0 -0 0
20.0603196621 -39.3100020885 0 -0 0
23.3023836613 -39.3100020885 0 -0 0
26.5444476604 -39.3100020885 0 -0 0
29.7865116596 -39.3100020885 0 -0 0
33.0285756588 -39.3100020885 0 -0 0
36.270639658 -39.3100020885 0 -0 0
39.5127036572 -39.3100020885 0 -0 0
42.7547676563 -39.3100020885 0 -0 0
-35.0547683239 -42.5520660877 0 -0 0
-31.8127043247 -42.5520660877 0 -0 0
-28.5706403255 -42.5520660877 0 -0 0
-25.3285763264 -42.5520660877 0 -0 0
-22.0865123272 -42.5520660877 0 -0 0
-18.844448328 -42.5520660877 0 -0 0
-15.6023843288 -42.5520660877 0 -0 0
-12.3603203297 -42.5520660877 0 -0 0
-9.1182563305 -42.5520660877 0 -0 0
-5.8761923313 -42.5520660877 0 -0 0
-2.6341283321 -42.5520660877 0 -0 0
0.607935667 -42.5520660877 0 -0 0
3.8499996662 -42.5520660877 0 -0 0
7.0920636654 -42.5520660877 0 -0 0
10.3341276646 -42.5520660877 0 -0 0
13.5761916637 -42.5520660877 0 -0 0
16.8182556629 -42.5520660877 0 -0 0
20.0603196621 -42.5520660877 0 -0 0
23.3023836613 -42.5520660877 0 -0 0
26.5444476604 -42.5520660877 0 -0 0
29.7865116596 -42.5520660877 0 -0 0
33.0285756588 -42.5520660877 0 -0 0
36.270639658 -42.5520660877 0 -0 0
39.5127036572 -42.5520660877 0 -0 0
42.7547676563 -42.5520660877 0 -0 0
