TITLE = "B00070"
VARIABLES = "x", "y", "Vx", "Vy", "isValid"
ZONE T="Frame 0", I=25, J=25, F=POINT
-35.0547683239 35.2574698925 0 -0 0
-31.8127043247 35.2574698925 0 -0 0
-28.5706403255 35.2574698925 0 -0 0
-25.3285763264 35.2574698925 0 -0 0
-22.0865123272 35.2574698925 0 -0 0
-18.844448328 35.2574698925 0 -0 0
-15.6023843288 35.2574698925 0 -0 0
-12.3603203297 35.2574698925 0 -0 0
-9.1182563305 35.2574698925 0 -0 0
-5.8761923313 35.2574698925 0 -0 0
-2.6341283321 35.2574698925 0 -0 0
0.607935667 35.2574698925 0 -0 0
3.8499996662 35.2574698925 0 -0 0
7.0920636654 35.2574698925 0 -0 0
10.3341276646 35.2574698925 0 -0 0
13.5761916637 35.2574698925 0 -0 0
16.8182556629 35.2574698925 0 -0 0
20.0603196621 35.2574698925 0 -0 0
23.3023836613 35.2574698925 0 -0 0
26.5444476604 35.2574698925 0 -0 0
29.7865116596 35.2574698925 0 -0 0
33.0285756588 35.2574698925 0 -0 0
36.270639658 35.2574698925 0 -0 0
39.5127036572 35.2574698925 0 -0 0
42.7547676563 35.2574698925 0 -0 0
-35.0547683239 32.0154058933 0 -0 0
-31.8127043247 32.0154058933 0 -0 0
-28.5706403255 32.0154058933 0 -0 0
-25.3285763264 32.0154058933 0 -0 0
-22.0865123272 32.0154058933 0 -0 0
-18.844448328 32.0154058933 0 -0 0
-15.6023843288 32.0154058933 0 -0 0
-12.3603203297 32.0154058933 0 -0 0
-9.1182563305 32.0154058933 0 -0 0
-5.8761923313 32.0154058933 0 -0 0
-2.6341283321 32.0154058933 0 -0 0
0.607935667 32.0154058933 0 -0 0
3.8499996662 32.0154058933 0 -0 0
7.0920636654 32.0154058933 0 -0 0
10.3341276646 32.0154058933 0 -0 0
13.5761916637 32.0154058933 0 -0 0
16.8182556629 32.0154058933 0 -0 0
20.0603196621 32.0154058933 0 -0 0
23.3023836613 32.0154058933 0 -0 0
26.5444476604 32.0154058933 0 -0 0
29.7865116596 32.0154058933 0 -0 0
33.0285756588 32.0154058933 0 -0 0
36.270639658 32.0154058933 0 -0 0
39.5127036572 32.0154058933 0 -0 0
42.7547676563 32.0154058933 0 -0 0
-35.0547683239 28.7733418941 0 -0 0
-31.8127043247 28.7733418941 0 -0 0
-28.5706403255 28.7733418941 0 -0 0
-25.3285763264 28.7733418941 0 -0 0
-22.0865123272 28.7733418941 0 -0 0
-18.844448328 28.7733418941 0 -0 0
-15.6023843288 28.7733418941 0 -0 0
-12.3603203297 28.7733418941 0 -0 0
-9.1182563305 28.7733418941 0 -0 0
-5.8761923313 28.7733418941 0 -0 0
-2.6341283321 28.7733418941 0 -0 0
0.607935667 28.7733418941 0 -0 0
3.8499996662 28.7733418941 0 -0 0
7.0920636654 28.7733418941 0 -0 0
10.3341276646 28.7733418941 0 -0 0
13.5761916637 28.7733418941 0 -0 0
16.8182556629 28.7733418941 0 -0 0
20.0603196621 28.7733418941 0 -0 0
23.3023836613 28.7733418941 0 -0 0
26.5444476604 28.7733418941 0 -0 0
29.7865116596 28.7733418941 0 -0 0
33.0285756588 28.7733418941 0 -0 0
36.270639658 28.7733418941 0 -0 0
39.5127036572 28.7733418941 0 -0 0
42.7547676563 28.7733418941 0 -0 0
-35.0547683239 25.531277895 0 -0 0
-31.8127043247 25.531277895 0 -0 0
-28.5706403255 25.531277895 0 -0 0
-25.3285763264 25.531277895 0 -0 0
-22.0865123272 25.531277895 0 -0 0
-18.844448328 25.531277895 0 -0 0
-15.6023843288 25.531277895 0 -0 0
-12.3603203297 25.531277895 0 -0 0
-9.1182563305 25.531277895 4.4883184584 -0.8902814522 1
-5.8761923313 25.531277895 4.3105656485 -1.7898555832 1
-2.6341283321 25.531277895 2.3173422646 -2.5207485628 1
0.607935667 25.531277895 -0.3225038375 -2.3697934457 1
3.8499996662 25.531277895 -1.3470646354 -1.8011899853 1
7.0920636654 25.531277895 -0.1361073704 -1.232400756 1
10.3341276646 25.531277895 2.8121566945 -0.6374871617 1
13.5761916637 25.531277895 4.4657130617 -0.1307978748 1
16.8182556629 25.531277895 0 -0 0
20.0603196621 25.531277895 0 -0 0
23.3023836613 25.531277895 0 -0 0
26.5444476604 25.531277895 0 -0 0
29.7865116596 25.531277895 0 -0 0
33.0285756588 25.531277895 0 -0 0
36.270639658 25.531277895 0 -0 0
39.5127036572 25.531277895 0 -0 0
42.7547676563 25.531277895 0 -0 0
-35.0547683239 22.2892138958 0 -0 0
-31.8127043247 22.2892138958 0 -0 0
-28.5706403255 22.2892138958 0 -0 0
-25.3285763264 22.2892138958 0 -0 0
-22.0865123272 22.2892138958 0 -0 0
-18.844448328 22.2892138958 0 -0 0
-15.6023843288 22.2892138958 1.6668559506 -0.4298843404 1
-12.3603203297 22.2892138958 2.1409610206 -0.2104143047 1
-9.1182563305 22.2892138958 2.8022998393 -0.3826574133 1
-5.8761923313 22.2892138958 3.399954678 -0.8508448224 1
-2.6341283321 22.2892138958 2.5637361665 -0.8666326993 1
0.607935667 22.2892138958 1.1192473351 0.1296525475 1
3.8499996662 22.2892138958 0.6048283465 0.8611296031 1
7.0920636654 22.2892138958 1.8747572404 0.7548164229 1
10.3341276646 22.2892138958 4.1105981534 0.4567942041 1
13.5761916637 22.2892138958 4.5994145306 -0.1795497912 1
16.8182556629 22.2892138958 3.4152893418 -0.5651622041 1
20.0603196621 22.2892138958 1.6611753887 -0.9635903214 1
23.3023836613 22.2892138958 0 -0 0
26.5444476604 22.2892138958 0 -0 0
29.7865116596 22.2892138958 0 -0 0
33.0285756588 22.2892138958 0 -0 0
36.270639658 22.2892138958 0 -0 0
39.5127036572 22.2892138958 0 -0 0
42.7547676563 22.2892138958 0 -0 0
-35.0547683239 19.0471498966 0 -0 0
-31.8127043247 19.0471498966 0 -0 0
-28.5706403255 19.0471498966 0 -0 0
-25.3285763264 19.0471498966 0 -0 0
-22.0865123272 19.0471498966 0 -0 0
-18.844448328 19.0471498966 3.1230490615 0.3966701429 1
-15.6023843288 19.0471498966 2.0381319345 0.3481699318 1
-12.3603203297 19.0471498966 1.6617786662 0.6037998609 1
-9.1182563305 19.0471498966 1.4971643544 0.7238675736 1
-5.8761923313 19.0471498966 2.1423288121 0.6154201631 1
-2.6341283321 19.0471498966 2.4574272135 0.8959195914 1
0.607935667 19.0471498966 2.3475926496 1.9795072733 1
3.8499996662 19.0471498966 2.7948621333 2.6446143124 1
7.0920636654 19.0471498966 4.1220679759 2.2382176395 1
10.3341276646 19.0471498966 5.4160684906 1.4685945715 1
13.5761916637 19.0471498966 4.6720155753 0.0365163085 1
16.8182556629 19.0471498966 2.1524611881 -0.8482510761 1
20.0603196621 19.0471498966 0.1976651593 -1.1379977034 1
23.3023836613 19.0471498966 -0.0017016038 -0.5829045056 1
26.5444476604 19.0471498966 0 -0 0
29.7865116596 19.0471498966 0 -0 0
33.0285756588 19.0471498966 0 -0 0
36.270639658 19.0471498966 0 -0 0
39.5127036572 19.0471498966 0 -0 0
42.7547676563 19.0471498966 0 -0 0
-35.0547683239 15.8050858974 0 -0 0
-31.8127043247 15.8050858974 0 -0 0
-28.5706403255 15.8050858974 0 -0 0
-25.3285763264 15.8050858974 0 -0 0
-22.0865123272 15.8050858974 3.6300413648 0.0084346471 1
-18.844448328 15.8050858974 4.2938172982 0.3507006858 1
-15.6023843288 15.8050858974 3.8938747594 1.1140791665 1
-12.3603203297 15.8050858974 3.0043579721 2.1664947894 1
-9.1182563305 15.8050858974 2.0165647611 2.4335209052 1
-5.8761923313 15.8050858974 2.4848096144 2.1965546498 1
-2.6341283321 15.8050858974 3.550492362 1.8563841469 1
0.607935667 15.8050858974 3.9080179651 2.0121802798 1
3.8499996662 15.8050858974 3.9822573402 2.2764623582 1
7.0920636654 15.8050858974 4.6370538582 2.0303257099 1
10.3341276646 15.8050858974 5.4168499132 1.6685593492 1
13.5761916637 15.8050858974 4.562662003 0.5388018348 1
16.8182556629 15.8050858974 1.8522101183 -0.3656268616 1
20.0603196621 15.8050858974 -0.3053933281 -1.0310924175 1
23.3023836613 15.8050858974 -0.3970587784 -0.8416765431 1
26.5444476604 15.8050858974 0.3313634579 -0.697838471 1
29.7865116596 15.8050858974 0 -0 0
33.0285756588 15.8050858974 0 -0 0
36.270639658 15.8050858974 0 -0 0
39.5127036572 15.8050858974 0 -0 0
42.7547676563 15.8050858974 0 -0 0
-35.0547683239 12.5630218983 0 -0 0
-31.8127043247 12.5630218983 0 -0 0
-28.5706403255 12.5630218983 0 -0 0
-25.3285763264 12.5630218983 0 -0 0
-22.0865123272 12.5630218983 2.9396520736 -0.6802056607 1
-18.844448328 12.5630218983 4.378221206 0.1075778589 1
-15.6023843288 12.5630218983 5.5211215211 1.7519390741 1
-12.3603203297 12.5630218983 5.5353634614 3.3314890135 1
-9.1182563305 12.5630218983 4.5809321346 3.4362863002 1
-5.8761923313 12.5630218983 4.5331367287 2.7081052014 1
-2.6341283321 12.5630218983 5.1389183021 1.7044336822 1
0.607935667 12.5630218983 4.9079599124 1.0391764277 1
3.8499996662 12.5630218983 3.9652004064 1.026033778 1
7.0920636654 12.5630218983 3.494082889 1.2010510048 1
10.3341276646 12.5630218983 4.204825099 1.5660658703 1
13.5761916637 12.5630218983 4.4278798882 1.3132065116 1
16.8182556629 12.5630218983 2.8397178443 0.3233283244 1
20.0603196621 12.5630218983 0.780040929 -0.8998617296 1
23.3023836613 12.5630218983 -0.0900078617 -1.5108996382 1
26.5444476604 12.5630218983 0.2696247498 -1.3812659148 1
29.7865116596 12.5630218983 0.5640884274 -1.5838951685 1
33.0285756588 12.5630218983 0 -0 0
36.270639658 12.5630218983 0 -0 0
39.5127036572 12.5630218983 0 -0 0
42.7547676563 12.5630218983 0 -0 0
-35.0547683239 9.3209578991 0 -0 0
-31.8127043247 9.3209578991 0 -0 0
-28.5706403255 9.3209578991 0 -0 0
-25.3285763264 9.3209578991 2.1601270104 -0.6592037958 1
-22.0865123272 9.3209578991 2.2893645875 -1.048892201 1
-18.844448328 9.3209578991 3.834751443 0.0672761501 1
-15.6023843288 9.3209578991 5.8189606884 2.0324771885 1
-12.3603203297 9.3209578991 6.7554679076 3.5605001875 1
-9.1182563305 9.3209578991 6.2049061608 3.4212264024 1
-5.8761923313 9.3209578991 5.4982821204 2.3379391515 1
-2.6341283321 9.3209578991 5.1082211958 1.1002323156 1
0.607935667 9.3209578991 4.2531033082 0.1873954191 1
3.8499996662 9.3209578991 3.1390048174 0.2442408002 1
7.0920636654 9.3209578991 2.2027556065 0.7412937809 1
10.3341276646 9.3209578991 2.7341110545 1.378880885 1
13.5761916637 9.3209578991 3.7324684168 1.301446675 1
16.8182556629 9.3209578991 3.9406200155 0.1245080153 1
20.0603196621 9.3209578991 2.7766116278 -1.3482671144 1
23.3023836613 9.3209578991 1.4192363204 -1.9228831204 1
26.5444476604 9.3209578991 0.8432633172 -1.6304005326 1
29.7865116596 9.3209578991 0.4539828717 -1.7554538152 1
33.0285756588 9.3209578991 0 -0 0
36.270639658 9.3209578991 0 -0 0
39.5127036572 9.3209578991 0 -0 0
42.7547676563 9.3209578991 0 -0 0
-35.0547683239 6.0788938999 0 -0 0
-31.8127043247 6.0788938999 0 -0 0
-28.5706403255 6.0788938999 0 -0 0
-25.3285763264 6.0788938999 2.1485894022 -1.2528508242 1
-22.0865123272 6.0788938999 2.1621060809 -0.913886801 1
-18.844448328 6.0788938999 3.2486419121 0.2702898309 1
-15.6023843288 6.0788938999 4.6773125215 1.7988668534 1
-12.3603203297 6.0788938999 5.5200345345 2.5972977844 1
-9.1182563305 6.0788938999 5.0375308321 2.4992232081 1
-5.8761923313 6.0788938999 3.9146440544 1.8057784276 1
-2.6341283321 6.0788938999 2.9461235693 0.9701352642 1
0.607935667 6.0788938999 2.2854653249 0.3805816463 1
3.8499996662 6.0788938999 1.9610849636 0.5084778518 1
7.0920636654 6.0788938999 1.538975597 0.8288796156 1
10.3341276646 6.0788938999 1.9244526084 0.8072751525 1
13.5761916637 6.0788938999 3.1721542863 0.187105556 1
16.8182556629 6.0788938999 4.3740535181 -0.6141748086 1
20.0603196621 6.0788938999 4.3215303242 -1.0160345578 1
23.3023836613 6.0788938999 3.0863484677 -0.7790747186 1
26.5444476604 6.0788938999 1.9267307512 -0.547763964 1
29.7865116596 6.0788938999 0.8367381515 -1.322527271 1
33.0285756588 6.0788938999 0.1903448705 -2.4978018221 1
36.270639658 6.0788938999 0 -0 0
39.5127036572 6.0788938999 0 -0 0
42.7547676563 6.0788938999 0 -0 0
-35.0547683239 2.8368299007 0 -0 0
-31.8127043247 2.8368299007 0 -0 0
-28.5706403255 2.8368299007 1.647393304 -0.7839963525 1
-25.3285763264 2.8368299007 1.713471976 -0.4485631488 1
-22.0865123272 2.8368299007 1.8939354588 0.5452990709 1
-18.844448328 2.8368299007 2.6711872102 1.3764439214 1
-15.6023843288 2.8368299007 3.3754642654 1.8583789184 1
-12.3603203297 2.8368299007 3.3964204617 1.646665023 1
-9.1182563305 2.8368299007 2.5919751732 1.5936908806 1
-5.8761923313 2.8368299007 1.4666148971 1.8096153395 1
-2.6341283321 2.8368299007 0.7523192976 1.5981333346 1
0.607935667 2.8368299007 0.8800286773 1.1599182985 1
3.8499996662 2.8368299007 1.4137396403 0.9144321815 1
7.0920636654 2.8368299007 1.7286855617 0.6120663187 1
10.3341276646 2.8368299007 2.0343558638 -0.2047485568 1
13.5761916637 2.8368299007 3.0118838448 -1.0831303927 1
16.8182556629 2.8368299007 4.3355446013 -0.8939678466 1
20.0603196621 2.8368299007 4.8880774172 0.0618396082 1
23.3023836613 2.8368299007 4.3089288278 0.9980351915 1
26.5444476604 2.8368299007 3.0825286155 0.6939472853 1
29.7865116596 2.8368299007 1.6933201498 -0.7641821715 1
33.0285756588 2.8368299007 0.687932475 -2.2133860338 1
36.270639658 2.8368299007 0 -0 0
39.5127036572 2.8368299007 0 -0 0
42.7547676563 2.8368299007 0 -0 0
-35.0547683239 -0.4052340984 0 -0 0
-31.8127043247 -0.4052340984 0 -0 0
-28.5706403255 -0.4052340984 -0.0223294889 0.8436096432 1
-25.3285763264 -0.4052340984 -0.2462140206 1.817763663 1
-22.0865123272 -0.4052340984 -0.0641628062 3.0043621993 1
-18.844448328 -0.4052340984 0.7500046955 3.2658896724 1
-15.6023843288 -0.4052340984 1.450507114 2.7472581578 1
-12.3603203297 -0.4052340984 1.4506188321 1.835481847 1
-9.1182563305 -0.4052340984 0.650504355 1.4572405433 1
-5.8761923313 -0.4052340984 -0.079044592 1.9576860168 1
-2.6341283321 -0.4052340984 -0.1605068611 2.1854411173 1
0.607935667 -0.4052340984 0.5391045681 1.8333906055 1
3.8499996662 -0.4052340984 1.4336564058 1.2221766654 1
7.0920636654 -0.4052340984 2.0730966711 0.5448932625 1
10.3341276646 -0.4052340984 2.4797616183 -0.5526143399 1
13.5761916637 -0.4052340984 3.1134733132 -1.3695193636 1
16.8182556629 -0.4052340984 3.8052089581 -0.5886217911 1
20.0603196621 -0.4052340984 4.2407379295 1.0672200788 1
23.3023836613 -0.4052340984 4.2436794361 2.0294088668 1
26.5444476604 -0.4052340984 3.5538161256 1.212155932 1
29.7865116596 -0.4052340984 2.347987739 -0.4362461183 1
33.0285756588 -0.4052340984 1.2529744689 -1.6953499463 1
36.270639658 -0.4052340984 0 -0 0
39.5127036572 -0.4052340984 0 -0 0
42.7547676563 -0.4052340984 0 -0 0
-35.0547683239 -3.6472980976 0 -0 0
-31.8127043247 -3.6472980976 0 -0 0
-28.5706403255 -3.6472980976 -1.9644301649 1.0550265044 1
-25.3285763264 -3.6472980976 -2.5440813346 3.351283342 1
-22.0865123272 -3.6472980976 -2.5436238944 5.2625829592 1
-18.844448328 -3.6472980976 -1.9461280276 5.5371799369 1
-15.6023843288 -3.6472980976 -0.8977210453 4.2160974523 1
-12.3603203297 -3.6472980976 -0.1954020758 2.6226019273 1
-9.1182563305 -3.6472980976 -0.4949960094 1.7586122662 1
-5.8761923313 -3.6472980976 -1.0151907845 1.9552511667 1
-2.6341283321 -3.6472980976 -0.8746329209 2.3544355324 1
0.607935667 -3.6472980976 0.0117727363 2.2781607748 1
3.8499996662 -3.6472980976 1.3254945935 1.7327801799 1
7.0920636654 -3.6472980976 2.1463138259 1.1060338803 1
10.3341276646 -3.6472980976 2.5184230153 0.012687415 1
13.5761916637 -3.6472980976 2.7691416142 -0.986112156 1
16.8182556629 -3.6472980976 2.9476263283 -0.5947475646 1
20.0603196621 -3.6472980976 3.4387317182 0.7018530749 1
23.3023836613 -3.6472980976 3.8242496425 1.4776254678 1
26.5444476604 -3.6472980976 3.5467392387 0.6332907895 1
29.7865116596 -3.6472980976 2.6754859404 -0.790815231 1
33.0285756588 -3.6472980976 1.7334535077 -1.6511497487 1
36.270639658 -3.6472980976 0 -0 0
39.5127036572 -3.6472980976 0 -0 0
42.7547676563 -3.6472980976 0 -0 0
-35.0547683239 -6.8893620968 0 -0 0
-31.8127043247 -6.8893620968 0 -0 0
-28.5706403255 -6.8893620968 -2.9763285122 -1.2042231186 1
-25.3285763264 -6.8893620968 -3.3139145533 1.4613910206 1
-22.0865123272 -6.8893620968 -3.133851595 4.2243573429 1
-18.844448328 -6.8893620968 -2.7208612914 5.3294121049 1
-15.6023843288 -6.8893620968 -1.784609816 4.5591664352 1
-12.3603203297 -6.8893620968 -1.0161483895 3.1610579645 1
-9.1182563305 -6.8893620968 -1.1597486833 2.0723086058 1
-5.8761923313 -6.8893620968 -1.7398314018 1.7007986178 1
-2.6341283321 -6.8893620968 -1.3966742522 2.1795064723 1
0.607935667 -6.8893620968 -0.0856148223 2.6421085063 1
3.8499996662 -6.8893620968 1.4474582675 2.4293899031 1
7.0920636654 -6.8893620968 2.0412331678 1.8253752869 1
10.3341276646 -6.8893620968 2.0613152457 0.6090668018 1
13.5761916637 -6.8893620968 2.2088469588 -0.5789167366 1
16.8182556629 -6.8893620968 2.5331414181 -0.8446782869 1
20.0603196621 -6.8893620968 3.2253390324 -0.3172734314 1
23.3023836613 -6.8893620968 3.7555113256 0.2168605506 1
26.5444476604 -6.8893620968 3.7918067149 -0.262077043 1
29.7865116596 -6.8893620968 3.0900952502 -1.0724677332 1
33.0285756588 -6.8893620968 2.4344477123 -1.5692451552 1
36.270639658 -6.8893620968 0 -0 0
39.5127036572 -6.8893620968 0 -0 0
42.7547676563 -6.8893620968 0 -0 0
-35.0547683239 -10.131426096 0 -0 0
-31.8127043247 -10.131426096 0 -0 0
-28.5706403255 -10.131426096 -3.0469415791 -3.5635836062 1
-25.3285763264 -10.131426096 -3.0564850197 -1.2502391124 1
-22.0865123272 -10.131426096 -2.3704466944 1.4427001345 1
-18.844448328 -10.131426096 -1.7025978826 3.1175827265 1
-15.6023843288 -10.131426096 -0.8705705349 3.650621645 1
-12.3603203297 -10.131426096 -0.5577932273 3.2037387964 1
-9.1182563305 -10.131426096 -1.0884831979 2.3749557263 1
-5.8761923313 -10.131426096 -1.7639415201 1.8226356276 1
-2.6341283321 -10.131426096 -1.0549793261 2.282841611 1
0.607935667 -10.131426096 0.7675789292 3.1567444392 1
3.8499996662 -10.131426096 1.840937765 3.124503208 1
7.0920636654 -10.131426096 1.6422998659 2.3911987789 1
10.3341276646 -10.131426096 1.3155984861 1.0233369944 1
13.5761916637 -10.131426096 1.7095997371 -0.1590017243 1
16.8182556629 -10.131426096 2.5521866316 -0.7278054846 1
20.0603196621 -10.131426096 3.2962202227 -0.726066306 1
23.3023836613 -10.131426096 3.5633429595 -0.3143404358 1
26.5444476604 -10.131426096 3.5147770008 -0.5043124284 1
29.7865116596 -10.131426096 3.0088647394 -1.0424850942 1
33.0285756588 -10.131426096 2.8151060515 -1.4845557624 1
36.270639658 -10.131426096 0 -0 0
39.5127036572 -10.131426096 0 -0 0
42.7547676563 -10.131426096 0 -0 0
-35.0547683239 -13.3734900951 0 -0 0
-31.8127043247 -13.3734900951 0 -0 0
-28.5706403255 -13.3734900951 0 -0 0
-25.3285763264 -13.3734900951 -2.5423415521 -1.5223104313 1
-22.0865123272 -13.3734900951 -1.911168273 -0.4435978844 1
-18.844448328 -13.3734900951 -0.6407069822 0.7675768156 1
-15.6023843288 -13.3734900951 0.6392318507 2.3869774965 1
-12.3603203297 -13.3734900951 1.0841245325 3.237740644 1
-9.1182563305 -13.3734900951 0.1734691012 3.0274956902 1
-5.8761923313 -13.3734900951 -0.8800307908 2.432462452 1
-2.6341283321 -13.3734900951 -0.1254634879 2.4772431307 1
0.607935667 -13.3734900951 1.6515840904 3.0984668589 1
3.8499996662 -13.3734900951 2.2486699217 3.2423784536 1
7.0920636654 -13.3734900951 1.6805510763 2.6387675321 1
10.3341276646 -13.3734900951 1.1723932062 1.5035112995 1
13.5761916637 -13.3734900951 1.5419879087 0.5597750153 1
16.8182556629 -13.3734900951 2.5571680497 0.0070468939 1
20.0603196621 -13.3734900951 3.2008099713 -0.0771035849 1
23.3023836613 -13.3734900951 2.9203644017 0.1584155441 1
26.5444476604 -13.3734900951 2.2829811076 0.0398830161 1
29.7865116596 -13.3734900951 1.8774004295 -0.4510012069 1
33.0285756588 -13.3734900951 2.3321880865 -1.1287325766 1
36.270639658 -13.3734900951 0 -0 0
39.5127036572 -13.3734900951 0 -0 0
42.7547676563 -13.3734900951 0 -0 0
-35.0547683239 -16.6155540943 0 -0 0
-31.8127043247 -16.6155540943 0 -0 0
-28.5706403255 -16.6155540943 0 -0 0
-25.3285763264 -16.6155540943 -2.1949277931 1.8499762098 1
-22.0865123272 -16.6155540943 -1.9305441116 1.0889791356 1
-18.844448328 -16.6155540943 -0.7407698382 0.8227603338 1
-15.6023843288 -16.6155540943 0.7769704937 2.1511278179 1
-12.3603203297 -16.6155540943 1.7340619183 3.4914481542 1
-9.1182563305 -16.6155540943 0.7417596754 3.4779064144 1
-5.8761923313 -16.6155540943 -0.503097117 2.6362834657 1
-2.6341283321 -16.6155540943 -0.0735865792 2.0672349447 1
0.607935667 -16.6155540943 1.4129173048 2.21075145 1
3.8499996662 -16.6155540943 2.2411742431 2.6026013734 1
7.0920636654 -16.6155540943 2.1811274411 2.5136476716 1
10.3341276646 -16.6155540943 1.8627783458 1.8966816097 1
13.5761916637 -16.6155540943 1.8555897409 1.3359618218 1
16.8182556629 -16.6155540943 2.3131440807 0.9741182398 1
20.0603196621 -16.6155540943 2.6622443297 0.9378810496 1
23.3023836613 -16.6155540943 2.0244253351 1.0734919162 1
26.5444476604 -16.6155540943 0.6148919556 0.9692592586 1
29.7865116596 -16.6155540943 0.0676612 0.4165039124 1
33.0285756588 -16.6155540943 0 -0 0
36.270639658 -16.6155540943 0 -0 0
39.5127036572 -16.6155540943 0 -0 0
42.7547676563 -16.6155540943 0 -0 0
-35.0547683239 -19.8576180935 0 -0 0
-31.8127043247 -19.8576180935 0 -0 0
-28.5706403255 -19.8576180935 0 -0 0
-25.3285763264 -19.8576180935 0 -0 0
-22.0865123272 -19.8576180935 -1.9775369591 3.7335584228 1
-18.844448328 -19.8576180935 -1.5858066043 2.6430961544 1
-15.6023843288 -19.8576180935 -0.4997626345 2.6576904596 1
-12.3603203297 -19.8576180935 0.5971501825 3.2338715755 1
-9.1182563305 -19.8576180935 -0.0725602497 3.0715138177 1
-5.8761923313 -19.8576180935 -1.1563433203 2.2924993362 1
-2.6341283321 -19.8576180935 -1.0004657389 1.6230959825 1
0.607935667 -19.8576180935 0.4046810834 1.5946077236 1
3.8499996662 -19.8576180935 1.9145823169 2.2129995497 1
7.0920636654 -19.8576180935 2.6545747332 2.516993024 1
10.3341276646 -19.8576180935 2.4085691271 2.1787034609 1
13.5761916637 -19.8576180935 1.8201212162 1.8706798327 1
16.8182556629 -19.8576180935 1.6232375927 1.6944130242 1
20.0603196621 -19.8576180935 1.9302198273 1.4641629874 1
23.3023836613 -19.8576180935 1.5502758798 1.1952451375 1
26.5444476604 -19.8576180935 0.1890267105 1.003481372 1
29.7865116596 -19.8576180935 -0.86425786 0.8103452104 1
33.0285756588 -19.8576180935 0 -0 0
36.270639658 -19.8576180935 0 -0 0
39.5127036572 -19.8576180935 0 -0 0
42.7547676563 -19.8576180935 0 -0 0
-35.0547683239 -23.0996820927 0 -0 0
-31.8127043247 -23.0996820927 0 -0 0
-28.5706403255 -23.0996820927 0 -0 0
-25.3285763264 -23.0996820927 0 -0 0
-22.0865123272 -23.0996820927 -1.5739459195 5.7347210363 1
-18.844448328 -23.0996820927 -1.6605905295 4.2490615296 1
-15.6023843288 -23.0996820927 -1.1363685822 3.3656693081 1
-12.3603203297 -23.0996820927 -0.6295654825 2.773717224 1
-9.1182563305 -23.0996820927 -1.0905401692 2.4152380921 1
-5.8761923313 -23.0996820927 -1.6344865456 2.1100336845 1
-2.6341283321 -23.0996820927 -1.5457390694 1.8851385666 1
0.607935667 -23.0996820927 -0.3431270687 1.9298505538 1
3.8499996662 -23.0996820927 1.3843109871 2.6507379723 1
7.0920636654 -23.0996820927 2.455020293 3.276049978 1
10.3341276646 -23.0996820927 2.3431308714 3.0291811234 1
13.5761916637 -23.0996820927 1.4141496759 2.5797106427 1
16.8182556629 -23.0996820927 0.9509442133 2.1495474601 1
20.0603196621 -23.0996820927 1.4255467307 1.5451914999 1
23.3023836613 -23.0996820927 1.8008185982 0.9157204871 1
26.5444476604 -23.0996820927 1.257291391 0.6872976446 1
29.7865116596 -23.0996820927 0 -0 0
33.0285756588 -23.0996820927 0 -0 0
36.270639658 -23.0996820927 0 -0 0
39.5127036572 -23.0996820927 0 -0 0
42.7547676563 -23.0996820927 0 -0 0
-35.0547683239 -26.3417460918 0 -0 0
-31.8127043247 -26.3417460918 0 -0 0
-28.5706403255 -26.3417460918 0 -0 0
-25.3285763264 -26.3417460918 0 -0 0
-22.0865123272 -26.3417460918 0 -0 0
-18.844448328 -26.3417460918 -1.4272522429 5.1247560741 1
-15.6023843288 -26.3417460918 -1.3307371904 3.8262448669 1
-12.3603203297 -26.3417460918 -1.2845251617 2.4187529841 1
-9.1182563305 -26.3417460918 -1.6728772526 1.7422747062 1
-5.8761923313 -26.3417460918 -1.6761344383 1.8440939515 1
-2.6341283321 -26.3417460918 -1.3112140047 2.1898319394 1
0.607935667 -26.3417460918 -0.3769573007 2.431682992 1
3.8499996662 -26.3417460918 0.7824048984 3.1153024701 1
7.0920636654 -26.3417460918 1.4015588984 3.656077714 1
10.3341276646 -26.3417460918 1.2520561162 3.3089053566 1
13.5761916637 -26.3417460918 0.3828404649 2.7671406529 1
16.8182556629 -26.3417460918 -0.0498199516 2.2367317892 1
20.0603196621 -26.3417460918 0.6471451134 1.6131730023 1
23.3023836613 -26.3417460918 1.6872265329 0.7378776235 1
26.5444476604 -26.3417460918 0 -0 0
29.7865116596 -26.3417460918 0 -0 0
33.0285756588 -26.3417460918 0 -0 0
36.270639658 -26.3417460918 0 -0 0
39.5127036572 -26.3417460918 0 -0 0
42.7547676563 -26.3417460918 0 -0 0
-35.0547683239 -29.583810091 0 -0 0
-31.8127043247 -29.583810091 0 -0 0
-28.5706403255 -29.583810091 0 -0 0
-25.3285763264 -29.583810091 0 -0 0
-22.0865123272 -29.583810091 0 -0 0
-18.844448328 -29.583810091 0 -0 0
-15.6023843288 -29.583810091 -1.4517289172 3.6394794282 1
-12.3603203297 -29.583810091 -1.8915677905 1.9207130724 1
-9.1182563305 -29.583810091 -2.3177153124 1.2153637503 1
-5.8761923313 -29.583810091 -1.6016568319 1.3959248353 1
-2.6341283321 -29.583810091 -0.7070984648 1.8100533045 1
0.607935667 -29.583810091 0.3001457303 1.8397159618 1
3.8499996662 -29.583810091 0.8998445945 2.0379180095 1
7.0920636654 -29.583810091 0.7433292388 2.156751162 1
10.3341276646 -29.583810091 0.1284608818 1.7660413669 1
13.5761916637 -29.583810091 -0.994848811 1.6183078064 1
16.8182556629 -29.583810091 -1.3832037704 1.7017518447 1
20.0603196621 -29.583810091 -0.5779179922 1.7302819223 1
23.3023836613 -29.583810091 0 -0 0
26.5444476604 -29.583810091 0 -0 0
29.7865116596 -29.583810091 0 -0 0
33.0285756588 -29.583810091 0 -0 0
36.270639658 -29.583810091 0 -0 0
39.5127036572 -29.583810091 0 -0 0
42.7547676563 -29.583810091 0 -0 0
-35.0547683239 -32.8258740902 0 -0 0
-31.8127043247 -32.8258740902 0 -0 0
-28.5706403255 -32.8258740902 0 -0 0
-25.3285763264 -32.8258740902 0 -0 0
-22.0865123272 -32.8258740902 0 -0 0
-18.844448328 -32.8258740902 0 -0 0
-15.6023843288 -32.8258740902 0 -0 0
-12.3603203297 -32.8258740902 0 -0 0
-9.1182563305 -32.8258740902 -3.2444050798 0.8443208646 1
-5.8761923313 -32.8258740902 -1.9725827156 1.1816937356 1
-2.6341283321 -32.8258740902 -0.4143416016 1.5350467442 1
0.607935667 -32.8258740902 1.0729186062 1.305232106 1
3.8499996662 -32.8258740902 1.5769197337 0.6823356261 1
7.0920636654 -32.8258740902 0.9554832883 0.0947095507 1
10.3341276646 -32.8258740902 -0.3938488087 -0.257476976 1
13.5761916637 -32.8258740902 -1.885329695 0.0573283117 1
16.8182556629 -32.8258740902 0 -0 0
20.0603196621 -32.8258740902 0 -0 0
23.3023836613 -32.8258740902 0 -0 0
26.5444476604 -32.8258740902 0 -0 0
29.7865116596 -32.8258740902 0 -0 0
33.0285756588 -32.8258740902 0 -0 0
36.270639658 -32.8258740902 0 -0 0
39.5127036572 -32.8258740902 0 -0 0
42.7547676563 -32.8258740902 0 -0 0
-35.0547683239 -36.0679380894 0 -0 0
-31.8127043247 -36.0679380894 0 -0 0
-28.5706403255 -36.0679380894 0 -0 0
-25.3285763264 -36.0679380894 0 -0 0
-22.0865123272 -36.0679380894 0 -0 0
-18.844448328 -36.0679380894 0 -0 0
-15.6023843288 -36.0679380894 0 -0 0
-12.3603203297 -36.0679380894 0 -0 0
-9.1182563305 -36.0679380894 0 -0 0
-5.8761923313 -36.0679380894 0 -0 0
-2.6341283321 -36.0679380894 0 -0 0
0.607935667 -36.0679380894 0 -0 0
3.8499996662 -36.0679380894 0 -0 0
7.0920636654 -36.0679380894 0 -0 0
10.3341276646 -36.0679380894 0 -0 0
13.5761916637 -36.0679380894 0 -0 0
16.8182556629 -36.0679380894 0 -0 0
20.0603196621 -36.0679380894 0 -0 0
23.3023836613 -36.0679380894 0 -0 0
26.5444476604 -36.0679380894 0 -0 0
29.7865116596 -36.0679380894 0 -0 0
33.0285756588 -36.0679380894 0 -0 0
36.270639658 -36.0679380894 0 -0 0
39.5127036572 -36.0679380894 0 -0 0
42.7547676563 -36.0679380894 0 -0 0
-35.0547683239 -39.3100020885 0 -0 0
-31.8127043247 -39.3100020885 0 -0 0
-28.5706403255 -39.3100020885 0 -0 0
-25.3285763264 -39.3100020885 0 -0 0
-22.0865123272 -39.3100020885 0 -0 0
-18.844448328 -39.3100020885 0 -0 0
-15.6023843288 -39.3100020885 0 -0 0
-12.3603203297 -39.3100020885 0 -0 0
-9.1182563305 -39.3100020885 0 -0 0
-5.8761923313 -39.3100020885 0 -0 0
-2.6341283321 -39.3100020885 0 -0 0
0.607935667 -39.3100020885 0 -0 0
3.8499996662 -39.3100020885 0 -0 0
7.0920636654 -39.3100020885 0 -0 0
10.3341276646 -39.3100020885 0 -0 0
13.5761916637 -39.3100020885 0 -0 0
16.8182556629 -39.3100020885 0 -0 0
20.0603196621 -39.3100020885 0 -0 0
23.3023836613 -39.3100020885 0 -0 0
26.5444476604 -39.3100020885 0 -0 0
29.7865116596 -39.3100020885 0 -0 0
33.0285756588 -39.3100020885 0 -0 0
36.270639658 -39.3100020885 0 -0 0
39.5127036572 -39.3100020885 0 -0 0
42.7547676563 -39.3100020885 0 -0 0
-35.0547683239 -42.5520660877 0 -0 0
-31.8127043247 -42.5520660877 0 -0 0
-28.5706403255 -42.5520660877 0 -0 0
-25.3285763264 -42.5520660877 0 -0 0
-22.0865123272 -42.5520660877 0 -0 0
-18.844448328 -42.5520660877 0 -0 0
-15.6023843288 -42.5520660877 0 -0 0
-12.3603203297 -42.5520660877 0 -0 0
-9.1182563305 -42.5520660877 0 -0 0
-5.8761923313 -42.5520660877 0 -0 0
-2.6341283321 -42.5520660877 0 -0 0
0.607935667 -42.5520660877 0 -0 0
3.8499996662 -42.5520660877 0 -0 0
7.0920636654 -42.5520660877 0 -0 0
10.3341276646 -42.5520660877 0 -0 0
13.5761916637 -42.5520660877 0 -0 0
16.8182556629 -42.5520660877 0 -0 0
20.0603196621 -42.5520660877 0 -0 0
23.3023836613 -42.5520660877 0 -0 0
26.5444476604 -42.5520660877 0 -0 0
29.7865116596 -42.5520660877 0 -0 0
33.0285756588 -42.5520660877 0 -0 0
36.270639658 -42.5520660877 0 -0 0
39.5127036572 -42.5520660877 0 -0 0
42.7547676563 -42.5520660877 0 -0 0
