TITLE = "B00070"
VARIABLES = "x", "y", "Vx", "Vy", "isValid"
ZONE T="Frame 0", I=25, J=25, F=POINT
-35.0547683239 35.2574698925 0 -0 0
-31.8127043247 35.2574698925 0 -0 0
-28.5706403255 35.2574698925 0 -0 0
-25.3285763264 35.2574698925 0 -0 0
-22.0865123272 35.2574698925 0 -0 0
-18.844448328 35.2574698925 0 -0 0
-15.6023843288 35.2574698925 0 -0 0
-12.3603203297 35.2574698925 0 -0 0
-9.1182563305 35.2574698925 0 -0 0
-5.8761923313 35.2574698925 0 -0 0
-2.6341283321 35.2574698925 0 -0 0
0.607935667 35.2574698925 0 -0 0
3.8499996662 35.2574698925 0 -0 0
7.0920636654 35.2574698925 0 -0 0
10.3341276646 35.2574698925 0 -0 0
13.5761916637 35.2574698925 0 -0 0
16.8182556629 35.2574698925 0 -0 0
20.0603196621 35.2574698925 0 -0 0
23.3023836613 35.2574698925 0 -0 0
26.5444476604 35.2574698925 0 -0 0
29.7865116596 35.2574698925 0 -0 0
33.0285756588 35.2574698925 0 -0 0
36.270639658 35.2574698925 0 -0 0
39.5127036572 35.2574698925 0 -0 0
42.7547676563 35.2574698925 0 -0 0
-35.0547683239 32.0154058933 0 -0 0
-31.8127043247 32.0154058933 0 -0 0
-28.5706403255 32.0154058933 0 -0 0
-25.3285763264 32.0154058933 0 -0 0
-22.0865123272 32.0154058933 0 -0 0
-18.844448328 32.0154058933 0 -0 0
-15.6023843288 32.0154058933 0 -0 0
-12.3603203297 32.0154058933 0 -0 0
-9.1182563305 32.0154058933 0 -0 0
-5.8761923313 32.0154058933 0 -0 0
-2.6341283321 32.0154058933 0 -0 0
0.607935667 32.0154058933 0 -0 0
3.8499996662 32.0154058933 0 -0 0
7.0920636654 32.0154058933 0 -0 0
10.3341276646 32.0154058933 0 -0 0
13.5761916637 32.0154058933 0 -0 0
16.8182556629 32.0154058933 0 -0 0
20.0603196621 32.0154058933 0 -0 0
23.3023836613 32.0154058933 0 -0 0
26.5444476604 32.0154058933 0 -0 0
29.7865116596 32.0154058933 0 -0 0
33.0285756588 32.0154058933 0 -0 0
36.270639658 32.0154058933 0 -0 0
39.5127036572 32.0154058933 0 -0 0
42.7547676563 32.0154058933 0 -0 0
-35.0547683239 28.7733418941 0 -0 0
-31.8127043247 28.7733418941 0 -0 0
-28.5706403255 28.7733418941 0 -0 0
-25.3285763264 28.7733418941 0 -0 0
-22.0865123272 28.7733418941 0 -0 0
-18.844448328 28.7733418941 0 -0 0
-15.6023843288 28.7733418941 0 -0 0
-12.3603203297 28.7733418941 0 -0 0
-9.1182563305 28.7733418941 0 -0 0
-5.8761923313 28.7733418941 0 -0 0
-2.6341283321 28.7733418941 0 -0 0
0.607935667 28.7733418941 0 -0 0
3.8499996662 28.7733418941 0 -0 0
7.0920636654 28.7733418941 0 -0 0
10.3341276646 28.7733418941 0 -0 0
13.5761916637 28.7733418941 0 -0 0
16.8182556629 28.7733418941 0 -0 0
20.0603196621 28.7733418941 0 -0 0
23.3023836613 28.7733418941 0 -0 0
26.5444476604 28.7733418941 0 -0 0
29.7865116596 28.7733418941 0 -0 0
33.0285756588 28.7733418941 0 -0 0
36.270639658 28.7733418941 0 -0 0
39.5127036572 28.7733418941 0 -0 0
42.7547676563 28.7733418941 0 -0 0
-35.0547683239 25.531277895 0 -0 0
-31.8127043247 25.531277895 0 -0 0
-28.5706403255 25.531277895 0 -0 0
-25.3285763264 25.531277895 0 -0 0
-22.0865123272 25.531277895 0 -0 0
-18.844448328 25.531277895 0 -0 0
-15.6023843288 25.531277895 0 -0 0
-12.3603203297 25.531277895 0 -0 0
-9.1182563305 25.531277895 10.5060107985 -2.0929098708 1
-5.8761923313 25.531277895 7.7156720393 -1.3640012458 1
-2.6341283321 25.531277895 3.8938829118 -1.4118179386 1
0.607935667 25.531277895 2.8186909938 -1.0002295458 1
3.8499996662 25.531277895 3.6785710906 -1.0590867768 1
7.0920636654 25.531277895 4.1806097544 -2.435213434 1
10.3341276646 25.531277895 2.6245974536 -4.5804146082 1
13.5761916637 25.531277895 1.1190762856 -5.9032329501 1
16.8182556629 25.531277895 0.8898782858 -6.1880947048 1
20.0603196621 25.531277895 0 -0 0
23.3023836613 25.531277895 0 -0 0
26.5444476604 25.531277895 0 -0 0
29.7865116596 25.531277895 0 -0 0
33.0285756588 25.531277895 0 -0 0
36.270639658 25.531277895 0 -0 0
39.5127036572 25.531277895 0 -0 0
42.7547676563 25.531277895 0 -0 0
-35.0547683239 22.2892138958 0 -0 0
-31.8127043247 22.2892138958 0 -0 0
-28.5706403255 22.2892138958 0 -0 0
-25.3285763264 22.2892138958 0 -0 0
-22.0865123272 22.2892138958 0 -0 0
-18.844448328 22.2892138958 0 -0 0
-15.6023843288 22.2892138958 9.264211307 -3.8729837822 1
-12.3603203297 22.2892138958 9.134651559 -3.7325396748 1
-9.1182563305 22.2892138958 8.4996285356 -1.7002033416 1
-5.8761923313 22.2892138958 6.020250684 -0.8982427989 1
-2.6341283321 22.2892138958 3.4592993169 -2.2265372133 1
0.607935667 22.2892138958 3.9439138869 -3.2700917816 1
3.8499996662 22.2892138958 5.801463827 -3.2028435421 1
7.0920636654 22.2892138958 6.0569515797 -3.3256938651 1
10.3341276646 22.2892138958 4.24320086 -4.5031434463 1
13.5761916637 22.2892138958 2.3622082416 -6.1473779973 1
16.8182556629 22.2892138958 1.6685893923 -6.9031012238 1
20.0603196621 22.2892138958 2.0979189166 -6.2077268911 1
23.3023836613 22.2892138958 0 -0 0
26.5444476604 22.2892138958 0 -0 0
29.7865116596 22.2892138958 0 -0 0
33.0285756588 22.2892138958 0 -0 0
36.270639658 22.2892138958 0 -0 0
39.5127036572 22.2892138958 0 -0 0
42.7547676563 22.2892138958 0 -0 0
-35.0547683239 19.0471498966 0 -0 0
-31.8127043247 19.0471498966 0 -0 0
-28.5706403255 19.0471498966 0 -0 0
-25.3285763264 19.0471498966 0 -0 0
-22.0865123272 19.0471498966 0 -0 0
-18.844448328 19.0471498966 11.9132430122 8.2923130109 1
-15.6023843288 19.0471498966 10.0682317648 3.8149870067 1
-12.3603203297 19.0471498966 8.011272618 0.8889886929 1
-9.1182563305 19.0471498966 6.1620148762 0.5575785097 1
-5.8761923313 19.0471498966 3.6122482996 0.8442338301 1
-2.6341283321 19.0471498966 1.9236281592 -1.1854627862 1
0.607935667 19.0471498966 3.3364402376 -3.7555566167 1
3.8499996662 19.0471498966 5.2287076248 -4.7677392411 1
7.0920636654 19.0471498966 5.4231453774 -4.2636307737 1
10.3341276646 19.0471498966 4.1013503127 -4.3942645248 1
13.5761916637 19.0471498966 3.0401119817 -5.8006244317 1
16.8182556629 19.0471498966 2.7381564564 -7.6112295329 1
20.0603196621 19.0471498966 3.0315528678 -7.8466376232 1
23.3023836613 19.0471498966 3.2665482052 -6.5695611884 1
26.5444476604 19.0471498966 0 -0 0
29.7865116596 19.0471498966 0 -0 0
33.0285756588 19.0471498966 0 -0 0
36.270639658 19.0471498966 0 -0 0
39.5127036572 19.0471498966 0 -0 0
42.7547676563 19.0471498966 0 -0 0
-35.0547683239 15.8050858974 0 -0 0
-31.8127043247 15.8050858974 0 -0 0
-28.5706403255 15.8050858974 0 -0 0
-25.3285763264 15.8050858974 0 -0 0
-22.0865123272 15.8050858974 8.2178169861 16.0299947177 1
-18.844448328 15.8050858974 8.74717102 14.6461121845 1
-15.6023843288 15.8050858974 8.164133736 11.1849837107 1
-12.3603203297 15.8050858974 6.5100329696 6.7459622096 1
-9.1182563305 15.8050858974 4.8298427125 4.1570469037 1
-5.8761923313 15.8050858974 3.386790666 2.9941720016 1
-2.6341283321 15.8050858974 2.3667601491 0.3783701192 1
0.607935667 15.8050858974 3.3637755358 -3.0304586346 1
3.8499996662 15.8050858974 4.1835147262 -5.0951556166 1
7.0920636654 15.8050858974 3.9014607183 -5.3354303875 1
10.3341276646 15.8050858974 3.1996013026 -5.538121992 1
13.5761916637 15.8050858974 3.0177626308 -6.742857655 1
16.8182556629 15.8050858974 3.1345430393 -8.766748253 1
20.0603196621 15.8050858974 3.4362497654 -9.4466215525 1
23.3023836613 15.8050858974 3.7355796141 -8.5962833866 1
26.5444476604 15.8050858974 4.7028935441 -5.7076810362 1
29.7865116596 15.8050858974 0 -0 0
33.0285756588 15.8050858974 0 -0 0
36.270639658 15.8050858974 0 -0 0
39.5127036572 15.8050858974 0 -0 0
42.7547676563 15.8050858974 0 -0 0
-35.0547683239 12.5630218983 0 -0 0
-31.8127043247 12.5630218983 0 -0 0
-28.5706403255 12.5630218983 0 -0 0
-25.3285763264 12.5630218983 0 -0 0
-22.0865123272 12.5630218983 5.0250413557 16.8678935294 1
-18.844448328 12.5630218983 4.7972234515 15.8919377538 1
-15.6023843288 12.5630218983 5.1494373133 13.9595025873 1
-12.3603203297 12.5630218983 5.3613465643 10.0298406049 1
-9.1182563305 12.5630218983 5.3690635655 6.4104408391 1
-5.8761923313 12.5630218983 4.9639207015 3.7538666544 1
-2.6341283321 12.5630218983 4.4361871835 0.597888805 1
0.607935667 12.5630218983 4.8032248254 -2.1575798384 1
3.8499996662 12.5630218983 4.6009861321 -4.1305041999 1
7.0920636654 12.5630218983 3.885292698 -5.6452602251 1
10.3341276646 12.5630218983 3.1420966905 -7.1081968803 1
13.5761916637 12.5630218983 3.090773711 -8.3000644333 1
16.8182556629 12.5630218983 3.2986592999 -9.8656754299 1
20.0603196621 12.5630218983 3.5884535584 -10.963734829 1
23.3023836613 12.5630218983 3.6958961478 -9.8916320667 1
26.5444476604 12.5630218983 4.6218973393 -6.5014246394 1
29.7865116596 12.5630218983 5.9067771304 -3.8329056794 1
33.0285756588 12.5630218983 0 -0 0
36.270639658 12.5630218983 0 -0 0
39.5127036572 12.5630218983 0 -0 0
42.7547676563 12.5630218983 0 -0 0
-35.0547683239 9.3209578991 0 -0 0
-31.8127043247 9.3209578991 0 -0 0
-28.5706403255 9.3209578991 0 -0 0
-25.3285763264 9.3209578991 4.1737623425 16.2147184332 1
-22.0865123272 9.3209578991 3.4355625483 14.685651927 1
-18.844448328 9.3209578991 2.5792039862 11.9401048674 1
-15.6023843288 9.3209578991 3.5418716522 10.3118749866 1
-12.3603203297 9.3209578991 5.3246819014 8.6200581997 1
-9.1182563305 9.3209578991 6.3056861261 6.2437695561 1
-5.8761923313 9.3209578991 6.2688584152 2.4522353426 1
-2.6341283321 9.3209578991 5.7617851917 -1.1846704937 1
0.607935667 9.3209578991 5.761697025 -2.7720015968 1
3.8499996662 9.3209578991 5.2382344587 -3.5497471723 1
7.0920636654 9.3209578991 4.8712910223 -5.4648017244 1
10.3341276646 9.3209578991 4.4142714195 -7.8899274696 1
13.5761916637 9.3209578991 4.0562219492 -9.4476499627 1
16.8182556629 9.3209578991 3.5174778606 -10.2057319501 1
20.0603196621 9.3209578991 3.1859777368 -10.6700841835 1
23.3023836613 9.3209578991 2.9990395881 -9.9780885676 1
26.5444476604 9.3209578991 3.656653213 -7.6455475124 1
29.7865116596 9.3209578991 4.8416488969 -6.1907898278 1
33.0285756588 9.3209578991 0 -0 0
36.270639658 9.3209578991 0 -0 0
39.5127036572 9.3209578991 0 -0 0
42.7547676563 9.3209578991 0 -0 0
-35.0547683239 6.0788938999 0 -0 0
-31.8127043247 6.0788938999 0 -0 0
-28.5706403255 6.0788938999 0 -0 0
-25.3285763264 6.0788938999 3.4777376295 14.2331152382 1
-22.0865123272 6.0788938999 2.4799269309 12.1399558134 1
-18.844448328 6.0788938999 2.2085163337 9.3714135516 1
-15.6023843288 6.0788938999 3.5377232885 8.4866891676 1
-12.3603203297 6.0788938999 5.6292640091 7.5363482318 1
-9.1182563305 6.0788938999 6.5118838662 4.9133257011 1
-5.8761923313 6.0788938999 6.234320019 -0.1288795792 1
-2.6341283321 6.0788938999 5.5105125316 -4.0601532175 1
0.607935667 6.0788938999 5.1247687556 -4.6336011659 1
3.8499996662 6.0788938999 4.730765391 -4.1558874513 1
7.0920636654 6.0788938999 4.676301322 -4.8890221898 1
10.3341276646 6.0788938999 4.6390635757 -6.9597610057 1
13.5761916637 6.0788938999 4.3372043695 -8.9570983321 1
16.8182556629 6.0788938999 3.5233010896 -9.9127232306 1
20.0603196621 6.0788938999 2.7169855802 -10.0138190259 1
23.3023836613 6.0788938999 2.2176308676 -9.3514751974 1
26.5444476604 6.0788938999 2.3756427925 -8.3407551738 1
29.7865116596 6.0788938999 3.1575325045 -7.9967559116 1
33.0285756588 6.0788938999 3.9304563885 -8.3458483101 1
36.270639658 6.0788938999 0 -0 0
39.5127036572 6.0788938999 0 -0 0
42.7547676563 6.0788938999 0 -0 0
-35.0547683239 2.8368299007 0 -0 0
-31.8127043247 2.8368299007 0 -0 0
-28.5706403255 2.8368299007 2.1199237531 14.923257542 1
-25.3285763264 2.8368299007 1.5109731608 13.6625124774 1
-22.0865123272 2.8368299007 1.0117231461 11.7798878693 1
-18.844448328 2.8368299007 1.6435172909 10.0737367482 1
-15.6023843288 2.8368299007 2.7823829229 9.6116949653 1
-12.3603203297 2.8368299007 4.1536844917 7.9792741472 1
-9.1182563305 2.8368299007 4.3575527592 3.9086149019 1
-5.8761923313 2.8368299007 3.9558692301 -2.0153536768 1
-2.6341283321 2.8368299007 3.4291061497 -5.8844226465 1
0.607935667 2.8368299007 3.5895423566 -6.0428986542 1
3.8499996662 2.8368299007 3.8188820421 -4.9932355231 1
7.0920636654 2.8368299007 3.7139322754 -4.806151235 1
10.3341276646 2.8368299007 3.2926407153 -5.8821943239 1
13.5761916637 2.8368299007 2.8684680368 -7.515205738 1
16.8182556629 2.8368299007 2.3655813725 -8.2452398471 1
20.0603196621 2.8368299007 2.1430759644 -8.0854926689 1
23.3023836613 2.8368299007 2.0275086029 -7.6906562498 1
26.5444476604 2.8368299007 1.9949838493 -7.999530143 1
29.7865116596 2.8368299007 1.8784588827 -9.0354235691 1
33.0285756588 2.8368299007 2.104167731 -9.8159627003 1
36.270639658 2.8368299007 0 -0 0
39.5127036572 2.8368299007 0 -0 0
42.7547676563 2.8368299007 0 -0 0
-35.0547683239 -0.4052340984 0 -0 0
-31.8127043247 -0.4052340984 0 -0 0
-28.5706403255 -0.4052340984 -0.2465300394 16.0768571268 1
-25.3285763264 -0.4052340984 -0.6142907538 14.153527285 1
-22.0865123272 -0.4052340984 -0.0504018244 12.3472151772 1
-18.844448328 -0.4052340984 1.6445845004 11.6109689395 1
-15.6023843288 -0.4052340984 2.3479705284 11.5133756567 1
-12.3603203297 -0.4052340984 2.3006585296 9.1459024745 1
-9.1182563305 -0.4052340984 1.2148527911 3.8045069459 1
-5.8761923313 -0.4052340984 0.4761763834 -2.2489856008 1
-2.6341283321 -0.4052340984 0.549348549 -5.7255692128 1
0.607935667 -0.4052340984 1.9867754396 -5.9934093608 1
3.8499996662 -0.4052340984 3.2525967318 -5.1043563545 1
7.0920636654 -0.4052340984 3.0949263019 -4.6788886522 1
10.3341276646 -0.4052340984 2.0649847314 -5.1196224778 1
13.5761916637 -0.4052340984 1.1994406039 -6.1638313516 1
16.8182556629 -0.4052340984 0.826442652 -6.4889550911 1
20.0603196621 -0.4052340984 1.3081950503 -5.8255568856 1
23.3023836613 -0.4052340984 1.9483030576 -5.3867578961 1
26.5444476604 -0.4052340984 2.1376395216 -6.5145572495 1
29.7865116596 -0.4052340984 1.3556124265 -8.9043172808 1
33.0285756588 -0.4052340984 0.8975020628 -10.7619079829 1
36.270639658 -0.4052340984 0 -0 0
39.5127036572 -0.4052340984 0 -0 0
42.7547676563 -0.4052340984 0 -0 0
-35.0547683239 -3.6472980976 0 -0 0
-31.8127043247 -3.6472980976 0 -0 0
-28.5706403255 -3.6472980976 -2.6338785078 17.6608007568 1
-25.3285763264 -3.6472980976 -1.8496013504 15.5394980403 1
-22.0865123272 -3.6472980976 0.0762898216 13.2501725541 1
-18.844448328 -3.6472980976 2.0874652756 11.9157829377 1
-15.6023843288 -3.6472980976 2.1156013206 11.0775797697 1
-12.3603203297 -3.6472980976 1.1047906393 8.4868504039 1
-9.1182563305 -3.6472980976 -0.7557117527 3.5470677502 1
-5.8761923313 -3.6472980976 -2.0762936196 -1.0390819202 1
-2.6341283321 -3.6472980976 -1.8650715856 -3.5314643591 1
0.607935667 -3.6472980976 0.1270631038 -4.5964709104 1
3.8499996662 -3.6472980976 1.9421514681 -4.9377578391 1
7.0920636654 -3.6472980976 2.0053115811 -5.0323754961 1
10.3341276646 -3.6472980976 1.3241440126 -4.989679869 1
13.5761916637 -3.6472980976 0.5105068935 -5.1566687938 1
16.8182556629 -3.6472980976 0.0201272346 -5.06813796 1
20.0603196621 -3.6472980976 0.4693356142 -4.2369289471 1
23.3023836613 -3.6472980976 1.2470876815 -4.0060563086 1
26.5444476604 -3.6472980976 1.6230852636 -5.846813513 1
29.7865116596 -3.6472980976 0.9930516598 -9.2652034842 1
33.0285756588 -3.6472980976 0.4062478161 -11.7039244127 1
36.270639658 -3.6472980976 0 -0 0
39.5127036572 -3.6472980976 0 -0 0
42.7547676563 -3.6472980976 0 -0 0
-35.0547683239 -6.8893620968 0 -0 0
-31.8127043247 -6.8893620968 0 -0 0
-28.5706403255 -6.8893620968 -4.4509895259 17.6964490871 1
-25.3285763264 -6.8893620968 -2.2381682722 16.2087303446 1
-22.0865123272 -6.8893620968 0.2836278173 13.3202421277 1
-18.844448328 -6.8893620968 1.0390153423 11.3616069603 1
-15.6023843288 -6.8893620968 0.1695162441 9.1870346524 1
-12.3603203297 -6.8893620968 -0.8798247163 6.3673520853 1
-9.1182563305 -6.8893620968 -2.0576007709 2.6945652732 1
-5.8761923313 -6.8893620968 -3.2033372152 -0.366432062 1
-2.6341283321 -6.8893620968 -2.9749809507 -2.3353454807 1
0.607935667 -6.8893620968 -1.1838095097 -4.338887689 1
3.8499996662 -6.8893620968 0.2530998733 -5.635316713 1
7.0920636654 -6.8893620968 0.2966781109 -5.7346642715 1
10.3341276646 -6.8893620968 0.2043792455 -5.2397930768 1
13.5761916637 -6.8893620968 -0.1998402083 -4.6241797093 1
16.8182556629 -6.8893620968 -0.7790811349 -4.2624713213 1
20.0603196621 -6.8893620968 -0.6941512463 -3.452303954 1
23.3023836613 -6.8893620968 -0.2287749809 -3.283064665 1
26.5444476604 -6.8893620968 0.4573889518 -5.2500500034 1
29.7865116596 -6.8893620968 0.309219521 -8.7290877896 1
33.0285756588 -6.8893620968 -0.0126723852 -11.4069391337 1
36.270639658 -6.8893620968 0 -0 0
39.5127036572 -6.8893620968 0 -0 0
42.7547676563 -6.8893620968 0 -0 0
-35.0547683239 -10.131426096 0 -0 0
-31.8127043247 -10.131426096 0 -0 0
-28.5706403255 -10.131426096 -6.2259145929 15.3384864341 1
-25.3285763264 -10.131426096 -3.5556217311 15.055903728 1
-22.0865123272 -10.131426096 -1.2260242961 13.8517628882 1
-18.844448328 -10.131426096 -1.7468868508 12.0179113702 1
-15.6023843288 -10.131426096 -3.3764350048 8.5920405155 1
-12.3603203297 -10.131426096 -3.9318984575 5.4169549886 1
-9.1182563305 -10.131426096 -3.7798278203 2.7880751096 1
-5.8761923313 -10.131426096 -3.7444385551 0.5882825229 1
-2.6341283321 -10.131426096 -3.2390118144 -1.6428346029 1
0.607935667 -10.131426096 -1.9417628704 -4.5370595427 1
3.8499996662 -10.131426096 -1.4337229837 -6.2662647443 1
7.0920636654 -10.131426096 -2.0648173053 -6.2852024669 1
10.3341276646 -10.131426096 -1.9896675789 -5.532737181 1
13.5761916637 -10.131426096 -1.721776101 -4.3280148033 1
16.8182556629 -10.131426096 -1.6496516697 -3.5062722362 1
20.0603196621 -10.131426096 -1.6288138341 -2.6642027173 1
23.3023836613 -10.131426096 -1.5404163072 -2.4550975898 1
26.5444476604 -10.131426096 -0.8075715073 -4.1950512776 1
29.7865116596 -10.131426096 -0.7469836275 -7.1723145982 1
33.0285756588 -10.131426096 -1.0492099181 -9.3539957986 1
36.270639658 -10.131426096 0 -0 0
39.5127036572 -10.131426096 0 -0 0
42.7547676563 -10.131426096 0 -0 0
-35.0547683239 -13.3734900951 0 -0 0
-31.8127043247 -13.3734900951 0 -0 0
-28.5706403255 -13.3734900951 0 -0 0
-25.3285763264 -13.3734900951 -6.449968504 14.2858920623 1
-22.0865123272 -13.3734900951 -4.9769150227 14.3951619971 1
-18.844448328 -13.3734900951 -5.9585442647 13.5880997883 1
-15.6023843288 -13.3734900951 -7.617464609 10.0461786178 1
-12.3603203297 -13.3734900951 -7.6817997243 6.6061195681 1
-9.1182563305 -13.3734900951 -6.4031079066 4.1763345756 1
-5.8761923313 -13.3734900951 -5.1520720481 2.0645531072 1
-2.6341283321 -13.3734900951 -4.191370922 -0.6300485876 1
0.607935667 -13.3734900951 -3.1618010406 -3.8113842499 1
3.8499996662 -13.3734900951 -3.4363720514 -5.6488865333 1
7.0920636654 -13.3734900951 -4.6379642095 -5.9760840017 1
10.3341276646 -13.3734900951 -4.6518540869 -5.346599779 1
13.5761916637 -13.3734900951 -3.5162776462 -3.7205710462 1
16.8182556629 -13.3734900951 -2.2524810176 -2.4463715027 1
20.0603196621 -13.3734900951 -1.9075997865 -1.9326118017 1
23.3023836613 -13.3734900951 -2.2152197199 -2.4442888665 1
26.5444476604 -13.3734900951 -2.022168781 -3.5101497591 1
29.7865116596 -13.3734900951 -2.3486920158 -4.4892967463 1
33.0285756588 -13.3734900951 -2.7898212328 -5.1565582834 1
36.270639658 -13.3734900951 0 -0 0
39.5127036572 -13.3734900951 0 -0 0
42.7547676563 -13.3734900951 0 -0 0
-35.0547683239 -16.6155540943 0 -0 0
-31.8127043247 -16.6155540943 0 -0 0
-28.5706403255 -16.6155540943 0 -0 0
-25.3285763264 -16.6155540943 -9.8471133215 13.9558962073 1
-22.0865123272 -16.6155540943 -9.1100645254 15.1212581952 1
-18.844448328 -16.6155540943 -9.5856266104 14.8567267137 1
-15.6023843288 -16.6155540943 -10.2658000389 12.2362181415 1
-12.3603203297 -16.6155540943 -9.8918657688 8.994215906 1
-9.1182563305 -16.6155540943 -8.5140866655 6.0744786352 1
-5.8761923313 -16.6155540943 -7.0923619006 3.714647271 1
-2.6341283321 -16.6155540943 -5.7538320729 1.0982955923 1
0.607935667 -16.6155540943 -4.5699300183 -1.9016479308 1
3.8499996662 -16.6155540943 -4.6514416359 -4.0709790005 1
7.0920636654 -16.6155540943 -5.7985736503 -5.0380075965 1
10.3341276646 -16.6155540943 -5.9920971264 -4.676230366 1
13.5761916637 -16.6155540943 -4.8435242508 -3.0803730606 1
16.8182556629 -16.6155540943 -3.1199254846 -1.8490131698 1
20.0603196621 -16.6155540943 -2.606199903 -1.6664401782 1
23.3023836613 -16.6155540943 -3.0147072926 -2.6510879216 1
26.5444476604 -16.6155540943 -3.3862172806 -3.0802634561 1
29.7865116596 -16.6155540943 -3.8090351511 -2.5662751861 1
33.0285756588 -16.6155540943 0 -0 0
36.270639658 -16.6155540943 0 -0 0
39.5127036572 -16.6155540943 0 -0 0
42.7547676563 -16.6155540943 0 -0 0
-35.0547683239 -19.8576180935 0 -0 0
-31.8127043247 -19.8576180935 0 -0 0
-28.5706403255 -19.8576180935 0 -0 0
-25.3285763264 -19.8576180935 0 -0 0
-22.0865123272 -19.8576180935 -11.0995260297 15.5153331198 1
-18.844448328 -19.8576180935 -11.3729031669 14.9387712567 1
-15.6023843288 -19.8576180935 -11.569187589 12.9208071513 1
-12.3603203297 -19.8576180935 -11.0800122042 10.1418050587 1
-9.1182563305 -19.8576180935 -9.6225660393 7.0545420125 1
-5.8761923313 -19.8576180935 -8.3503846676 4.8277556981 1
-2.6341283321 -19.8576180935 -6.8801023984 2.7618950366 1
0.607935667 -19.8576180935 -5.5447115465 0.1860384409 1
3.8499996662 -19.8576180935 -4.9363278478 -2.5091816663 1
7.0920636654 -19.8576180935 -5.4195081994 -4.2037471706 1
10.3341276646 -19.8576180935 -5.7918319177 -4.1368060049 1
13.5761916637 -19.8576180935 -5.5897369481 -3.0812212121 1
16.8182556629 -19.8576180935 -4.6755111432 -2.3623735542 1
20.0603196621 -19.8576180935 -4.2625141969 -2.3019896353 1
23.3023836613 -19.8576180935 -4.643514484 -3.0445396406 1
26.5444476604 -19.8576180935 -5.2515977516 -2.9062474648 1
29.7865116596 -19.8576180935 -5.4246526656 -1.7037443515 1
33.0285756588 -19.8576180935 0 -0 0
36.270639658 -19.8576180935 0 -0 0
39.5127036572 -19.8576180935 0 -0 0
42.7547676563 -19.8576180935 0 -0 0
-35.0547683239 -23.0996820927 0 -0 0
-31.8127043247 -23.0996820927 0 -0 0
-28.5706403255 -23.0996820927 0 -0 0
-25.3285763264 -23.0996820927 0 -0 0
-22.0865123272 -23.0996820927 -10.9941197286 15.7213641887 1
-18.844448328 -23.0996820927 -12.3003165352 13.8179370721 1
-15.6023843288 -23.0996820927 -12.8753215919 11.7105441612 1
-12.3603203297 -23.0996820927 -12.8851080949 9.5258266449 1
-9.1182563305 -23.0996820927 -11.2025759854 7.006611941 1
-5.8761923313 -23.0996820927 -9.8667593971 5.1130371505 1
-2.6341283321 -23.0996820927 -8.148972688 3.3186598538 1
0.607935667 -23.0996820927 -6.6395504458 1.1189552829 1
3.8499996662 -23.0996820927 -5.4110182299 -1.5352437606 1
7.0920636654 -23.0996820927 -5.1614738785 -3.3427055078 1
10.3341276646 -23.0996820927 -5.7454175886 -3.5284691071 1
13.5761916637 -23.0996820927 -6.6031225045 -3.1115623303 1
16.8182556629 -23.0996820927 -6.7022985606 -2.8043910808 1
20.0603196621 -23.0996820927 -6.3587546249 -2.4570642807 1
23.3023836613 -23.0996820927 -6.8549489239 -2.4763819957 1
26.5444476604 -23.0996820927 -7.3736752479 -2.4475443915 1
29.7865116596 -23.0996820927 0 -0 0
33.0285756588 -23.0996820927 0 -0 0
36.270639658 -23.0996820927 0 -0 0
39.5127036572 -23.0996820927 0 -0 0
42.7547676563 -23.0996820927 0 -0 0
-35.0547683239 -26.3417460918 0 -0 0
-31.8127043247 -26.3417460918 0 -0 0
-28.5706403255 -26.3417460918 0 -0 0
-25.3285763264 -26.3417460918 0 -0 0
-22.0865123272 -26.3417460918 0 -0 0
-18.844448328 -26.3417460918 -13.1181471582 12.7992494366 1
-15.6023843288 -26.3417460918 -14.4731653653 10.3393153602 1
-12.3603203297 -26.3417460918 -14.9777457661 8.4592361125 1
-9.1182563305 -26.3417460918 -13.4974511423 6.5813199682 1
-5.8761923313 -26.3417460918 -11.7932819601 5.066130658 1
-2.6341283321 -26.3417460918 -9.8246628205 3.4358116494 1
0.607935667 -26.3417460918 -8.229647024 1.534573905 1
3.8499996662 -26.3417460918 -7.3552955118 -0.9279763368 1
7.0920636654 -26.3417460918 -7.0128639258 -2.9610632947 1
10.3341276646 -26.3417460918 -7.6546769924 -3.3718464115 1
13.5761916637 -26.3417460918 -8.3684250224 -2.8083247647 1
16.8182556629 -26.3417460918 -8.3923954931 -1.9435556435 1
20.0603196621 -26.3417460918 -7.9040015309 -1.5516071365 1
23.3023836613 -26.3417460918 -8.196507821 -1.7456190017 1
26.5444476604 -26.3417460918 0 -0 0
29.7865116596 -26.3417460918 0 -0 0
33.0285756588 -26.3417460918 0 -0 0
36.270639658 -26.3417460918 0 -0 0
39.5127036572 -26.3417460918 0 -0 0
42.7547676563 -26.3417460918 0 -0 0
-35.0547683239 -29.583810091 0 -0 0
-31.8127043247 -29.583810091 0 -0 0
-28.5706403255 -29.583810091 0 -0 0
-25.3285763264 -29.583810091 0 -0 0
-22.0865123272 -29.583810091 0 -0 0
-18.844448328 -29.583810091 0 -0 0
-15.6023843288 -29.583810091 -16.2900635152 9.5083418611 1
-12.3603203297 -29.583810091 -16.7597190356 8.2504495325 1
-9.1182563305 -29.583810091 -15.5071927977 6.7025213928 1
-5.8761923313 -29.583810091 -13.5902955013 4.8124146935 1
-2.6341283321 -29.583810091 -11.5152863376 3.0955917792 1
0.607935667 -29.583810091 -9.9967364271 1.5949813753 1
3.8499996662 -29.583810091 -9.967928262 -0.478420105 1
7.0920636654 -29.583810091 -10.2966861601 -2.9988698974 1
10.3341276646 -29.583810091 -10.9215911497 -3.8568797733 1
13.5761916637 -29.583810091 -10.7401924056 -2.5464065802 1
16.8182556629 -29.583810091 -9.8758749877 -0.6096185985 1
20.0603196621 -29.583810091 -8.906852979 0.0986178715 1
23.3023836613 -29.583810091 0 -0 0
26.5444476604 -29.583810091 0 -0 0
29.7865116596 -29.583810091 0 -0 0
33.0285756588 -29.583810091 0 -0 0
36.270639658 -29.583810091 0 -0 0
39.5127036572 -29.583810091 0 -0 0
42.7547676563 -29.583810091 0 -0 0
-35.0547683239 -32.8258740902 0 -0 0
-31.8127043247 -32.8258740902 0 -0 0
-28.5706403255 -32.8258740902 0 -0 0
-25.3285763264 -32.8258740902 0 -0 0
-22.0865123272 -32.8258740902 0 -0 0
-18.844448328 -32.8258740902 0 -0 0
-15.6023843288 -32.8258740902 0 -0 0
-12.3603203297 -32.8258740902 0 -0 0
-9.1182563305 -32.8258740902 -16.2351115101 6.6818650236 1
-5.8761923313 -32.8258740902 -14.8235603361 4.4909707057 1
-2.6341283321 -32.8258740902 -13.1773420345 2.8892829249 1
0.607935667 -32.8258740902 -12.0006089586 2.1877535304 1
3.8499996662 -32.8258740902 -12.2978865162 0.5046623777 1
7.0920636654 -32.8258740902 -12.9324209995 -2.3176352981 1
10.3341276646 -32.8258740902 -13.4700747801 -3.9426273174 1
13.5761916637 -32.8258740902 -12.6725744304 -2.4863883115 1
16.8182556629 -32.8258740902 0 -0 0
20.0603196621 -32.8258740902 0 -0 0
23.3023836613 -32.8258740902 0 -0 0
26.5444476604 -32.8258740902 0 -0 0
29.7865116596 -32.8258740902 0 -0 0
33.0285756588 -32.8258740902 0 -0 0
36.270639658 -32.8258740902 0 -0 0
39.5127036572 -32.8258740902 0 -0 0
42.7547676563 -32.8258740902 0 -0 0
-35.0547683239 -36.0679380894 0 -0 0
-31.8127043247 -36.0679380894 0 -0 0
-28.5706403255 -36.0679380894 0 -0 0
-25.3285763264 -36.0679380894 0 -0 0
-22.0865123272 -36.0679380894 0 -0 0
-18.844448328 -36.0679380894 0 -0 0
-15.6023843288 -36.0679380894 0 -0 0
-12.3603203297 -36.0679380894 0 -0 0
-9.1182563305 -36.0679380894 0 -0 0
-5.8761923313 -36.0679380894 0 -0 0
-2.6341283321 -36.0679380894 0 -0 0
0.607935667 -36.0679380894 0 -0 0
3.8499996662 -36.0679380894 0 -0 0
7.0920636654 -36.0679380894 0 -0 0
10.3341276646 -36.0679380894 0 -0 0
13.5761916637 -36.0679380894 0 -0 0
16.8182556629 -36.0679380894 0 -0 0
20.0603196621 -36.0679380894 0 -0 0
23.3023836613 -36.0679380894 0 -0 0
26.5444476604 -36.0679380894 0 -0 0
29.7865116596 -36.0679380894 0 -0 0
33.0285756588 -36.0679380894 0 -0 0
36.270639658 -36.0679380894 0 -0 0
39.5127036572 -36.0679380894 0 -0 0
42.7547676563 -36.0679380894 0 -0 0
-35.0547683239 -39.3100020885 0 -0 0
-31.8127043247 -39.3100020885 0 -0 0
-28.5706403255 -39.3100020885 0 -0 0
-25.3285763264 -39.3100020885 0 -0 0
-22.0865123272 -39.3100020885 0 -0 0
-18.844448328 -39.3100020885 0 -0 0
-15.6023843288 -39.3100020885 0 -0 0
-12.3603203297 -39.3100020885 0 -0 0
-9.1182563305 -39.3100020885 0 -0 0
-5.8761923313 -39.3100020885 0 -0 0
-2.6341283321 -39.3100020885 0 -0 0
0.607935667 -39.3100020885 0 -0 0
3.8499996662 -39.3100020885 0 -0 0
7.0920636654 -39.3100020885 0 -0 0
10.3341276646 -39.3100020885 0 -0 0
13.5761916637 -39.3100020885 0 -0 0
16.8182556629 -39.3100020885 0 -0 0
20.0603196621 -39.3100020885 0 -0 0
23.3023836613 -39.3100020885 0 -0 0
26.5444476604 -39.3100020885 0 -0 0
29.7865116596 -39.3100020885 0 -0 0
33.0285756588 -39.3100020885 0 -0 0
36.270639658 -39.3100020885 0 -0 0
39.5127036572 -39.3100020885 0 -0 0
42.7547676563 -39.3100020885 0 -0 0
-35.0547683239 -42.5520660877 0 -0 0
-31.8127043247 -42.5520660877 0 -0 0
-28.5706403255 -42.5520660877 0 -0 0
-25.3285763264 -42.5520660877 0 -0 0
-22.0865123272 -42.5520660877 0 -0 0
-18.844448328 -42.5520660877 0 -0 0
-15.6023843288 -42.5520660877 0 -0 0
-12.3603203297 -42.5520660877 0 -0 0
-9.1182563305 -42.5520660877 0 -0 0
-5.8761923313 -42.5520660877 0 -0 0
-2.6341283321 -42.5520660877 0 -0 0
0.607935667 -42.5520660877 0 -0 0
3.8499996662 -42.5520660877 0 -0 0
7.0920636654 -42.5520660877 0 -0 0
10.3341276646 -42.5520660877 0 -0 0
13.5761916637 -42.5520660877 0 -0 0
16.8182556629 -42.5520660877 0 -0 0
20.0603196621 -42.5520660877 0 -0 0
23.3023836613 -42.5520660877 0 -0 0
26.5444476604 -42.5520660877 0 -0 0
29.7865116596 -42.5520660877 0 -0 0
33.0285756588 -42.5520660877 0 -0 0
36.270639658 -42.5520660877 0 -0 0
39.5127036572 -42.5520660877 0 -0 0
42.7547676563 -42.5520660877 0 -0 0
