TITLE = "B00070"
VARIABLES = "x", "y", "Vx", "Vy", "isValid"
ZONE T="Frame 0", I=25, J=25, F=POINT
-35.0547683239 35.2574698925 0 -0 0
-31.8127043247 35.2574698925 0 -0 0
-28.5706403255 35.2574698925 0 -0 0
-25.3285763264 35.2574698925 0 -0 0
-22.0865123272 35.2574698925 0 -0 0
-18.844448328 35.2574698925 0 -0 0
-15.6023843288 35.2574698925 0 -0 0
-12.3603203297 35.2574698925 0 -0 0
-9.1182563305 35.2574698925 0 -0 0
-5.8761923313 35.2574698925 0 -0 0
-2.6341283321 35.2574698925 0 -0 0
0.607935667 35.2574698925 0 -0 0
3.8499996662 35.2574698925 0 -0 0
7.0920636654 35.2574698925 0 -0 0
10.3341276646 35.2574698925 0 -0 0
13.5761916637 35.2574698925 0 -0 0
16.8182556629 35.2574698925 0 -0 0
20.0603196621 35.2574698925 0 -0 0
23.3023836613 35.2574698925 0 -0 0
26.5444476604 35.2574698925 0 -0 0
29.7865116596 35.2574698925 0 -0 0
33.0285756588 35.2574698925 0 -0 0
36.270639658 35.2574698925 0 -0 0
39.5127036572 35.2574698925 0 -0 0
42.7547676563 35.2574698925 0 -0 0
-35.0547683239 32.0154058933 0 -0 0
-31.8127043247 32.0154058933 0 -0 0
-28.5706403255 32.0154058933 0 -0 0
-25.3285763264 32.0154058933 0 -0 0
-22.0865123272 32.0154058933 0 -0 0
-18.844448328 32.0154058933 0 -0 0
-15.6023843288 32.0154058933 0 -0 0
-12.3603203297 32.0154058933 0 -0 0
-9.1182563305 32.0154058933 0 -0 0
-5.8761923313 32.0154058933 0 -0 0
-2.6341283321 32.0154058933 0 -0 0
0.607935667 32.0154058933 0 -0 0
3.8499996662 32.0154058933 0 -0 0
7.0920636654 32.0154058933 0 -0 0
10.3341276646 32.0154058933 0 -0 0
13.5761916637 32.0154058933 0 -0 0
16.8182556629 32.0154058933 0 -0 0
20.0603196621 32.0154058933 0 -0 0
23.3023836613 32.0154058933 0 -0 0
26.5444476604 32.0154058933 0 -0 0
29.7865116596 32.0154058933 0 -0 0
33.0285756588 32.0154058933 0 -0 0
36.270639658 32.0154058933 0 -0 0
39.5127036572 32.0154058933 0 -0 0
42.7547676563 32.0154058933 0 -0 0
-35.0547683239 28.7733418941 0 -0 0
-31.8127043247 28.7733418941 0 -0 0
-28.5706403255 28.7733418941 0 -0 0
-25.3285763264 28.7733418941 0 -0 0
-22.0865123272 28.7733418941 0 -0 0
-18.844448328 28.7733418941 0 -0 0
-15.6023843288 28.7733418941 0 -0 0
-12.3603203297 28.7733418941 0 -0 0
-9.1182563305 28.7733418941 0 -0 0
-5.8761923313 28.7733418941 0 -0 0
-2.6341283321 28.7733418941 0 -0 0
0.607935667 28.7733418941 0 -0 0
3.8499996662 28.7733418941 0 -0 0
7.0920636654 28.7733418941 0 -0 0
10.3341276646 28.7733418941 0 -0 0
13.5761916637 28.7733418941 0 -0 0
16.8182556629 28.7733418941 0 -0 0
20.0603196621 28.7733418941 0 -0 0
23.3023836613 28.7733418941 0 -0 0
26.5444476604 28.7733418941 0 -0 0
29.7865116596 28.7733418941 0 -0 0
33.0285756588 28.7733418941 0 -0 0
36.270639658 28.7733418941 0 -0 0
39.5127036572 28.7733418941 0 -0 0
42.7547676563 28.7733418941 0 -0 0
-35.0547683239 25.531277895 0 -0 0
-31.8127043247 25.531277895 0 -0 0
-28.5706403255 25.531277895 0 -0 0
-25.3285763264 25.531277895 0 -0 0
-22.0865123272 25.531277895 0 -0 0
-18.844448328 25.531277895 0 -0 0
-15.6023843288 25.531277895 0 -0 0
-12.3603203297 25.531277895 0 -0 0
-9.1182563305 25.531277895 11.0216905405 3.5322013965 1
-5.8761923313 25.531277895 7.8181537425 2.8448019223 1
-2.6341283321 25.531277895 3.8613774825 0.4452248921 1
0.607935667 25.531277895 0.9871298472 -2.3720119552 1
3.8499996662 25.531277895 0.186171559 -3.3888752648 1
7.0920636654 25.531277895 1.0102689996 -2.3320189996 1
10.3341276646 25.531277895 2.8682850607 -0.1663278821 1
13.5761916637 25.531277895 4.8079018874 2.3123774532 1
16.8182556629 25.531277895 0 -0 0
20.0603196621 25.531277895 0 -0 0
23.3023836613 25.531277895 0 -0 0
26.5444476604 25.531277895 0 -0 0
29.7865116596 25.531277895 0 -0 0
33.0285756588 25.531277895 0 -0 0
36.270639658 25.531277895 0 -0 0
39.5127036572 25.531277895 0 -0 0
42.7547676563 25.531277895 0 -0 0
-35.0547683239 22.2892138958 0 -0 0
-31.8127043247 22.2892138958 0 -0 0
-28.5706403255 22.2892138958 0 -0 0
-25.3285763264 22.2892138958 0 -0 0
-22.0865123272 22.2892138958 0 -0 0
-18.844448328 22.2892138958 0 -0 0
-15.6023843288 22.2892138958 10.2551209992 -0.8132986436 1
-12.3603203297 22.2892138958 11.908103981 -0.2602863269 1
-9.1182563305 22.2892138958 11.7079184846 0.4399617255 1
-5.8761923313 22.2892138958 9.4675750314 0.7139671635 1
-2.6341283321 22.2892138958 7.2782329909 -0.4479995387 1
0.607935667 22.2892138958 5.3067580958 -2.4879078283 1
3.8499996662 22.2892138958 3.3856719756 -3.6871359414 1
7.0920636654 22.2892138958 1.9342350351 -2.8213405237 1
10.3341276646 22.2892138958 2.5547504103 -1.2995657352 1
13.5761916637 22.2892138958 4.693265862 0.0946070229 1
16.8182556629 22.2892138958 6.3464903964 1.1516325165 1
20.0603196621 22.2892138958 6.5717363694 1.476722665 1
23.3023836613 22.2892138958 0 -0 0
26.5444476604 22.2892138958 0 -0 0
29.7865116596 22.2892138958 0 -0 0
33.0285756588 22.2892138958 0 -0 0
36.270639658 22.2892138958 0 -0 0
39.5127036572 22.2892138958 0 -0 0
42.7547676563 22.2892138958 0 -0 0
-35.0547683239 19.0471498966 0 -0 0
-31.8127043247 19.0471498966 0 -0 0
-28.5706403255 19.0471498966 0 -0 0
-25.3285763264 19.0471498966 0 -0 0
-22.0865123272 19.0471498966 0 -0 0
-18.844448328 19.0471498966 8.1295663534 -2.3446633716 1
-15.6023843288 19.0471498966 9.0888990841 -2.1814610856 1
-12.3603203297 19.0471498966 10.3058554962 -2.4277301349 1
-9.1182563305 19.0471498966 10.6937237272 -2.386129496 1
-5.8761923313 19.0471498966 10.2403416043 -2.2013707554 1
-2.6341283321 19.0471498966 9.6968591599 -2.8025380706 1
0.607935667 19.0471498966 8.7856261914 -3.6425184616 1
3.8499996662 19.0471498966 5.9521455367 -3.7734894805 1
7.0920636654 19.0471498966 3.1158800827 -2.2623321359 1
10.3341276646 19.0471498966 3.0338874736 -1.7195645361 1
13.5761916637 19.0471498966 5.4480391829 -2.9238448725 1
16.8182556629 19.0471498966 6.9245202953 -3.3524772156 1
20.0603196621 19.0471498966 6.1578462825 -2.7606422845 1
23.3023836613 19.0471498966 4.6580722543 -2.3181415017 1
26.5444476604 19.0471498966 0 -0 0
29.7865116596 19.0471498966 0 -0 0
33.0285756588 19.0471498966 0 -0 0
36.270639658 19.0471498966 0 -0 0
39.5127036572 19.0471498966 0 -0 0
42.7547676563 19.0471498966 0 -0 0
-35.0547683239 15.8050858974 0 -0 0
-31.8127043247 15.8050858974 0 -0 0
-28.5706403255 15.8050858974 0 -0 0
-25.3285763264 15.8050858974 0 -0 0
-22.0865123272 15.8050858974 9.4215822117 -0.8609457212 1
-18.844448328 15.8050858974 8.4554002575 -1.2708185622 1
-15.6023843288 15.8050858974 8.1832000853 -1.785348363 1
-12.3603203297 15.8050858974 8.1663687012 -2.7639627268 1
-9.1182563305 15.8050858974 8.7643460126 -3.6898971894 1
-5.8761923313 15.8050858974 10.0977718342 -4.5126811501 1
-2.6341283321 15.8050858974 10.8166691615 -5.5967347265 1
0.607935667 15.8050858974 10.0801372878 -5.2941091947 1
3.8499996662 15.8050858974 6.6610087696 -3.0961781481 1
7.0920636654 15.8050858974 3.5872213383 -0.2735878163 1
10.3341276646 15.8050858974 3.645196072 -0.8761874628 1
13.5761916637 15.8050858974 6.0983071938 -4.9160202201 1
16.8182556629 15.8050858974 7.0588555378 -7.5359768447 1
20.0603196621 15.8050858974 5.7101593657 -6.7313192919 1
23.3023836613 15.8050858974 4.5123118765 -4.6892141193 1
26.5444476604 15.8050858974 5.3862802259 -3.5594829492 1
29.7865116596 15.8050858974 0 -0 0
33.0285756588 15.8050858974 0 -0 0
36.270639658 15.8050858974 0 -0 0
39.5127036572 15.8050858974 0 -0 0
42.7547676563 15.8050858974 0 -0 0
-35.0547683239 12.5630218983 0 -0 0
-31.8127043247 12.5630218983 0 -0 0
-28.5706403255 12.5630218983 0 -0 0
-25.3285763264 12.5630218983 0 -0 0
-22.0865123272 12.5630218983 9.345587957 1.131303451 1
-18.844448328 12.5630218983 8.2193218587 0.8653916474 1
-15.6023843288 12.5630218983 7.105411779 -0.2516247985 1
-12.3603203297 12.5630218983 6.7986037642 -1.9097275628 1
-9.1182563305 12.5630218983 7.9475027358 -3.1768693928 1
-5.8761923313 12.5630218983 10.0702626182 -4.4376066069 1
-2.6341283321 12.5630218983 10.4187040325 -5.5488022395 1
0.607935667 12.5630218983 9.1525282619 -5.0647843043 1
3.8499996662 12.5630218983 5.8966228636 -2.5500546281 1
7.0920636654 12.5630218983 3.8314234523 -0.0290056343 1
10.3341276646 12.5630218983 4.2858599522 -1.0804915817 1
13.5761916637 12.5630218983 6.1659141388 -5.3546301947 1
16.8182556629 12.5630218983 6.7810422875 -9.1454984778 1
20.0603196621 12.5630218983 5.7825780382 -9.3507155145 1
23.3023836613 12.5630218983 5.4049292932 -7.2908794764 1
26.5444476604 12.5630218983 6.4489944432 -4.9304925413 1
29.7865116596 12.5630218983 7.5784550744 -3.5257449978 1
33.0285756588 12.5630218983 0 -0 0
36.270639658 12.5630218983 0 -0 0
39.5127036572 12.5630218983 0 -0 0
42.7547676563 12.5630218983 0 -0 0
-35.0547683239 9.3209578991 0 -0 0
-31.8127043247 9.3209578991 0 -0 0
-28.5706403255 9.3209578991 0 -0 0
-25.3285763264 9.3209578991 7.814916334 2.4458316327 1
-22.0865123272 9.3209578991 8.0019390262 3.3489279023 1
-18.844448328 9.3209578991 7.1089034216 2.7695990544 1
-15.6023843288 9.3209578991 6.2839977234 0.7525275612 1
-12.3603203297 9.3209578991 6.7227779925 -1.253733095 1
-9.1182563305 9.3209578991 8.6824500245 -2.5327786363 1
-5.8761923313 9.3209578991 10.620070721 -3.751449015 1
-2.6341283321 9.3209578991 9.9563808407 -4.4635094983 1
0.607935667 9.3209578991 7.697048335 -4.0334836987 1
3.8499996662 9.3209578991 5.1733630967 -2.4541356066 1
7.0920636654 9.3209578991 4.0015579956 -1.4192405475 1
10.3341276646 9.3209578991 4.0684155237 -2.7941987695 1
13.5761916637 9.3209578991 4.9171238135 -6.026526824 1
16.8182556629 9.3209578991 5.5228927054 -9.9465581049 1
20.0603196621 9.3209578991 5.6697095738 -11.4617111822 1
23.3023836613 9.3209578991 5.9821367056 -10.6102177911 1
26.5444476604 9.3209578991 6.7111466317 -8.4632984231 1
29.7865116596 9.3209578991 7.3523576285 -7.1494758014 1
33.0285756588 9.3209578991 0 -0 0
36.270639658 9.3209578991 0 -0 0
39.5127036572 9.3209578991 0 -0 0
42.7547676563 9.3209578991 0 -0 0
-35.0547683239 6.0788938999 0 -0 0
-31.8127043247 6.0788938999 0 -0 0
-28.5706403255 6.0788938999 0 -0 0
-25.3285763264 6.0788938999 5.3092110623 4.0822924177 1
-22.0865123272 6.0788938999 5.5622065962 4.5130588779 1
-18.844448328 6.0788938999 5.2756606161 3.5553771591 1
-15.6023843288 6.0788938999 5.3307068268 1.6900371482 1
-12.3603203297 6.0788938999 7.0476668221 0.0211363889 1
-9.1182563305 6.0788938999 9.4454470031 -0.8937703018 1
-5.8761923313 6.0788938999 10.426439754 -1.5375090709 1
-2.6341283321 6.0788938999 8.8997893776 -1.6672173736 1
0.607935667 6.0788938999 6.5325480859 -1.5165637444 1
3.8499996662 6.0788938999 5.2168359192 -1.8853641163 1
7.0920636654 6.0788938999 4.5602229258 -2.9325815275 1
10.3341276646 6.0788938999 3.6839752258 -4.5347536213 1
13.5761916637 6.0788938999 3.7581995039 -6.9017110887 1
16.8182556629 6.0788938999 4.6630814511 -10.462191952 1
20.0603196621 6.0788938999 5.8735322482 -12.5745958712 1
23.3023836613 6.0788938999 6.3481456354 -12.6693798975 1
26.5444476604 6.0788938999 6.3652928495 -11.7839205897 1
29.7865116596 6.0788938999 6.7490178498 -11.7598015642 1
33.0285756588 6.0788938999 7.0332509639 -12.935572053 1
36.270639658 6.0788938999 0 -0 0
39.5127036572 6.0788938999 0 -0 0
42.7547676563 6.0788938999 0 -0 0
-35.0547683239 2.8368299007 0 -0 0
-31.8127043247 2.8368299007 0 -0 0
-28.5706403255 2.8368299007 2.599078027 3.7823837486 1
-25.3285763264 2.8368299007 3.475381284 4.1000471365 1
-22.0865123272 2.8368299007 3.7788335295 4.551627881 1
-18.844448328 2.8368299007 3.9859612471 4.6438559789 1
-15.6023843288 2.8368299007 4.9792683488 4.1960431529 1
-12.3603203297 2.8368299007 7.508532244 3.3273771847 1
-9.1182563305 2.8368299007 9.3605231533 2.1838951808 1
-5.8761923313 2.8368299007 8.7850826981 1.1841337186 1
-2.6341283321 2.8368299007 6.8678701755 0.8415241385 1
0.607935667 2.8368299007 5.7365773679 0.7826947615 1
3.8499996662 2.8368299007 6.163773379 -0.4610412269 1
7.0920636654 2.8368299007 6.3069597121 -2.899740944 1
10.3341276646 2.8368299007 5.0430297767 -5.1031751623 1
13.5761916637 2.8368299007 4.92655614 -7.6425564876 1
16.8182556629 2.8368299007 5.7980845063 -10.7316933779 1
20.0603196621 2.8368299007 6.6714698081 -12.7921804002 1
23.3023836613 2.8368299007 6.4719063097 -13.3060303814 1
26.5444476604 2.8368299007 6.0198726542 -13.9196621119 1
29.7865116596 2.8368299007 6.2878329746 -15.9535433248 1
33.0285756588 2.8368299007 6.5981102883 -17.7763256957 1
36.270639658 2.8368299007 0 -0 0
39.5127036572 2.8368299007 0 -0 0
42.7547676563 2.8368299007 0 -0 0
-35.0547683239 -0.4052340984 0 -0 0
-31.8127043247 -0.4052340984 0 -0 0
-28.5706403255 -0.4052340984 0.9260331972 3.3020685127 1
-25.3285763264 -0.4052340984 2.0400930396 3.4865591299 1
-22.0865123272 -0.4052340984 2.5896928033 4.1477284089 1
-18.844448328 -0.4052340984 3.2326390534 5.3009861968 1
-15.6023843288 -0.4052340984 4.9419016737 6.1998583157 1
-12.3603203297 -0.4052340984 7.7147148871 5.7962402523 1
-9.1182563305 -0.4052340984 8.2013352494 4.4079158691 1
-5.8761923313 -0.4052340984 5.9791885563 3.4287133248 1
-2.6341283321 -0.4052340984 4.0922981296 3.0546075523 1
0.607935667 -0.4052340984 4.9077666703 2.7454051475 1
3.8499996662 -0.4052340984 7.1300954337 0.7370123368 1
7.0920636654 -0.4052340984 8.2314852391 -2.8922754595 1
10.3341276646 -0.4052340984 7.3378481686 -5.2600128397 1
13.5761916637 -0.4052340984 7.2602699329 -7.5488685062 1
16.8182556629 -0.4052340984 7.6394990357 -9.7790794323 1
20.0603196621 -0.4052340984 7.5152099652 -11.7797852095 1
23.3023836613 -0.4052340984 6.5993409988 -13.0950124594 1
26.5444476604 -0.4052340984 5.850328707 -14.7989002328 1
29.7865116596 -0.4052340984 5.8515545863 -17.7143928208 1
33.0285756588 -0.4052340984 6.0175803201 -20.0389233884 1
36.270639658 -0.4052340984 0 -0 0
39.5127036572 -0.4052340984 0 -0 0
42.7547676563 -0.4052340984 0 -0 0
-35.0547683239 -3.6472980976 0 -0 0
-31.8127043247 -3.6472980976 0 -0 0
-28.5706403255 -3.6472980976 -1.2599560935 1.9875262153 1
-25.3285763264 -3.6472980976 -0.0410209977 2.4430735551 1
-22.0865123272 -3.6472980976 0.980151695 3.7174254277 1
-18.844448328 -3.6472980976 2.10982761 5.0206200376 1
-15.6023843288 -3.6472980976 4.358149696 5.6754591292 1
-12.3603203297 -3.6472980976 7.1437123567 5.0793139942 1
-9.1182563305 -3.6472980976 6.5481813692 3.9841683231 1
-5.8761923313 -3.6472980976 3.7076926702 3.5784179543 1
-2.6341283321 -3.6472980976 2.3165579736 3.5130332931 1
0.607935667 -3.6472980976 4.4803774171 2.6581475979 1
3.8499996662 -3.6472980976 7.5425428479 0.1029271696 1
7.0920636654 -3.6472980976 9.2817685565 -3.3650702577 1
10.3341276646 -3.6472980976 9.2240556054 -4.9731534451 1
13.5761916637 -3.6472980976 9.1601933293 -6.3616146075 1
16.8182556629 -3.6472980976 8.8287813722 -8.3390993309 1
20.0603196621 -3.6472980976 7.8236067921 -11.1076615208 1
23.3023836613 -3.6472980976 6.4730615349 -13.6483888978 1
26.5444476604 -3.6472980976 5.4162466356 -15.7705684501 1
29.7865116596 -3.6472980976 5.1009142302 -18.1500461918 1
33.0285756588 -3.6472980976 5.2653360548 -19.7353038678 1
36.270639658 -3.6472980976 0 -0 0
39.5127036572 -3.6472980976 0 -0 0
42.7547676563 -3.6472980976 0 -0 0
-35.0547683239 -6.8893620968 0 -0 0
-31.8127043247 -6.8893620968 0 -0 0
-28.5706403255 -6.8893620968 -2.8158910974 1.9863022985 1
-25.3285763264 -6.8893620968 -1.8118269043 2.3811352453 1
-22.0865123272 -6.8893620968 -0.4707656055 3.5685369439 1
-18.844448328 -6.8893620968 1.0012344045 3.8513723744 1
-15.6023843288 -6.8893620968 3.4285007585 4.0266387023 1
-12.3603203297 -6.8893620968 5.6655590965 3.5877986489 1
-9.1182563305 -6.8893620968 4.5658269457 2.6455633121 1
-5.8761923313 -6.8893620968 2.454092731 2.0946387835 1
-2.6341283321 -6.8893620968 2.3357941646 1.6865329751 1
0.607935667 -6.8893620968 4.9091084949 0.6598379468 1
3.8499996662 -6.8893620968 7.4004410859 -1.5069337977 1
7.0920636654 -6.8893620968 8.7936711002 -3.6913057429 1
10.3341276646 -6.8893620968 9.608283035 -3.9576126359 1
13.5761916637 -6.8893620968 9.6054363378 -4.5244966947 1
16.8182556629 -6.8893620968 8.256295105 -6.9219199817 1
20.0603196621 -6.8893620968 5.9241532155 -10.6263293484 1
23.3023836613 -6.8893620968 4.2103131737 -14.1188669047 1
26.5444476604 -6.8893620968 3.6133346823 -16.167290791 1
29.7865116596 -6.8893620968 4.1232017634 -17.4357703694 1
33.0285756588 -6.8893620968 4.794439256 -18.0341613395 1
36.270639658 -6.8893620968 0 -0 0
39.5127036572 -6.8893620968 0 -0 0
42.7547676563 -6.8893620968 0 -0 0
-35.0547683239 -10.131426096 0 -0 0
-31.8127043247 -10.131426096 0 -0 0
-28.5706403255 -10.131426096 -2.2599391046 4.8459156214 1
-25.3285763264 -10.131426096 -1.5188590978 5.8647463768 1
-22.0865123272 -10.131426096 -0.6303663425 6.1342031155 1
-18.844448328 -10.131426096 0.0026302393 5.0790887464 1
-15.6023843288 -10.131426096 1.6506737391 4.6178649209 1
-12.3603203297 -10.131426096 2.6913381307 4.6721230662 1
-9.1182563305 -10.131426096 1.4620157359 3.5245357252 1
-5.8761923313 -10.131426096 0.2789835726 1.4578782421 1
-2.6341283321 -10.131426096 1.4124491457 0.2871340852 1
0.607935667 -10.131426096 4.5236228782 0.0215185775 1
3.8499996662 -10.131426096 6.9395460738 -0.5902278515 1
7.0920636654 -10.131426096 8.1003723081 -1.8404246167 1
10.3341276646 -10.131426096 9.3861410126 -2.52110908 1
13.5761916637 -10.131426096 8.9278070618 -3.5490795813 1
16.8182556629 -10.131426096 6.2715402528 -6.2772686723 1
20.0603196621 -10.131426096 2.3101660393 -9.6216898073 1
23.3023836613 -10.131426096 0.0982034673 -12.7685408566 1
26.5444476604 -10.131426096 0.4538676435 -14.6795309845 1
29.7865116596 -10.131426096 2.6572565708 -15.7983941 1
33.0285756588 -10.131426096 4.5182582973 -16.2050889394 1
36.270639658 -10.131426096 0 -0 0
39.5127036572 -10.131426096 0 -0 0
42.7547676563 -10.131426096 0 -0 0
-35.0547683239 -13.3734900951 0 -0 0
-31.8127043247 -13.3734900951 0 -0 0
-28.5706403255 -13.3734900951 0 -0 0
-25.3285763264 -13.3734900951 0.2063009284 10.0577900505 1
-22.0865123272 -13.3734900951 -0.8129135182 9.5140261973 1
-18.844448328 -13.3734900951 -3.1929302241 7.3763329302 1
-15.6023843288 -13.3734900951 -3.4452527321 6.5871045487 1
-12.3603203297 -13.3734900951 -3.3636873691 6.9528773609 1
-9.1182563305 -13.3734900951 -3.4957939871 5.3742551344 1
-5.8761923313 -13.3734900951 -3.1235563219 1.8966408477 1
-2.6341283321 -13.3734900951 -0.7224290525 0.1637984114 1
0.607935667 -13.3734900951 2.97200925 1.2272932776 1
3.8499996662 -13.3734900951 5.6260495481 2.1677229333 1
7.0920636654 -13.3734900951 7.0288063963 0.2665666941 1
10.3341276646 -13.3734900951 8.4408219551 -2.4356122977 1
13.5761916637 -13.3734900951 7.8919504725 -4.5404177275 1
16.8182556629 -13.3734900951 5.2523604538 -6.4291358014 1
20.0603196621 -13.3734900951 1.0527355291 -8.8343594252 1
23.3023836613 -13.3734900951 -1.8361239239 -11.3109219815 1
26.5444476604 -13.3734900951 -1.3472171155 -13.1357370174 1
29.7865116596 -13.3734900951 1.6722374402 -14.2517848375 1
33.0285756588 -13.3734900951 4.5550171657 -14.9172682456 1
36.270639658 -13.3734900951 0 -0 0
39.5127036572 -13.3734900951 0 -0 0
42.7547676563 -13.3734900951 0 -0 0
-35.0547683239 -16.6155540943 0 -0 0
-31.8127043247 -16.6155540943 0 -0 0
-28.5706403255 -16.6155540943 0 -0 0
-25.3285763264 -16.6155540943 1.0438474508 10.9189932516 1
-22.0865123272 -16.6155540943 -3.2218712431 10.1893788401 1
-18.844448328 -16.6155540943 -9.0236659971 8.7523625889 1
-15.6023843288 -16.6155540943 -10.8971846766 7.8883320148 1
-12.3603203297 -16.6155540943 -10.8362614916 7.4210708843 1
-9.1182563305 -16.6155540943 -8.6892002114 5.6908780345 1
-5.8761923313 -16.6155540943 -5.7620170822 2.7882940166 1
-2.6341283321 -16.6155540943 -2.086271402 1.3177134299 1
0.607935667 -16.6155540943 0.5059012783 2.8214972309 1
3.8499996662 -16.6155540943 1.3940589926 4.3235614795 1
7.0920636654 -16.6155540943 2.7538455987 1.907367896 1
10.3341276646 -16.6155540943 5.0404185932 -2.7799009701 1
13.5761916637 -16.6155540943 5.8591598695 -6.4297517605 1
16.8182556629 -16.6155540943 5.2993116335 -7.9144885363 1
20.0603196621 -16.6155540943 2.5054714186 -9.0970466527 1
23.3023836613 -16.6155540943 -0.2533145909 -10.7030549035 1
26.5444476604 -16.6155540943 -0.6150680248 -12.2471242406 1
29.7865116596 -16.6155540943 1.6718831128 -13.0649367472 1
33.0285756588 -16.6155540943 0 -0 0
36.270639658 -16.6155540943 0 -0 0
39.5127036572 -16.6155540943 0 -0 0
42.7547676563 -16.6155540943 0 -0 0
-35.0547683239 -19.8576180935 0 -0 0
-31.8127043247 -19.8576180935 0 -0 0
-28.5706403255 -19.8576180935 0 -0 0
-25.3285763264 -19.8576180935 0 -0 0
-22.0865123272 -19.8576180935 -7.3847335252 7.6024575508 1
-18.844448328 -19.8576180935 -13.9069806012 8.369140018 1
-15.6023843288 -19.8576180935 -15.8041623757 8.3715126683 1
-12.3603203297 -19.8576180935 -14.6156789744 6.476703544 1
-9.1182563305 -19.8576180935 -10.7907119208 4.4456173964 1
-5.8761923313 -19.8576180935 -6.2188709196 3.8601950826 1
-2.6341283321 -19.8576180935 -2.7213057482 3.6377819174 1
0.607935667 -19.8576180935 -2.9088426454 4.6482190225 1
3.8499996662 -19.8576180935 -5.1483038278 5.0819161194 1
7.0920636654 -19.8576180935 -4.6467609507 2.7944650813 1
10.3341276646 -19.8576180935 -0.8077561441 -1.9383252752 1
13.5761916637 -19.8576180935 1.9062042164 -6.7607645519 1
16.8182556629 -19.8576180935 3.3712044855 -8.9328337711 1
20.0603196621 -19.8576180935 2.4089663302 -10.0703054938 1
23.3023836613 -19.8576180935 1.2537115817 -11.2524578018 1
26.5444476604 -19.8576180935 0.8249374774 -12.2422436707 1
29.7865116596 -19.8576180935 2.1668963706 -12.8395114213 1
33.0285756588 -19.8576180935 0 -0 0
36.270639658 -19.8576180935 0 -0 0
39.5127036572 -19.8576180935 0 -0 0
42.7547676563 -19.8576180935 0 -0 0
-35.0547683239 -23.0996820927 0 -0 0
-31.8127043247 -23.0996820927 0 -0 0
-28.5706403255 -23.0996820927 0 -0 0
-25.3285763264 -23.0996820927 0 -0 0
-22.0865123272 -23.0996820927 -10.7845185125 4.9099626852 1
-18.844448328 -23.0996820927 -15.1583268548 7.8098062891 1
-15.6023843288 -23.0996820927 -16.4071066121 8.09745858 1
-12.3603203297 -23.0996820927 -15.4516308723 5.1854189862 1
-9.1182563305 -23.0996820927 -12.0642628956 3.1138317168 1
-5.8761923313 -23.0996820927 -7.141999145 4.2774841163 1
-2.6341283321 -23.0996820927 -4.3613016553 5.2809168003 1
0.607935667 -23.0996820927 -6.6660421216 5.3161406021 1
3.8499996662 -23.0996820927 -11.0078109291 4.383458066 1
7.0920636654 -23.0996820927 -11.5031652289 2.8376954453 1
10.3341276646 -23.0996820927 -7.1819549619 -0.2293139262 1
13.5761916637 -23.0996820927 -4.2520253798 -5.2669586843 1
16.8182556629 -23.0996820927 -1.9159457302 -8.8161970864 1
20.0603196621 -23.0996820927 -1.5483606698 -10.5354246567 1
23.3023836613 -23.0996820927 -0.3025226077 -11.0021960392 1
26.5444476604 -23.0996820927 0.4470258176 -11.4426575144 1
29.7865116596 -23.0996820927 0 -0 0
33.0285756588 -23.0996820927 0 -0 0
36.270639658 -23.0996820927 0 -0 0
39.5127036572 -23.0996820927 0 -0 0
42.7547676563 -23.0996820927 0 -0 0
-35.0547683239 -26.3417460918 0 -0 0
-31.8127043247 -26.3417460918 0 -0 0
-28.5706403255 -26.3417460918 0 -0 0
-25.3285763264 -26.3417460918 0 -0 0
-22.0865123272 -26.3417460918 0 -0 0
-18.844448328 -26.3417460918 -14.4562808397 8.0664408127 1
-15.6023843288 -26.3417460918 -16.6115192787 8.0983040141 1
-12.3603203297 -26.3417460918 -16.7174038539 4.9994277236 1
-9.1182563305 -26.3417460918 -14.305328591 2.4486346994 1
-5.8761923313 -26.3417460918 -9.3677981133 2.8382386367 1
-2.6341283321 -26.3417460918 -7.8438543336 4.3643204587 1
0.607935667 -26.3417460918 -10.3276375005 4.3794621824 1
3.8499996662 -26.3417460918 -13.9832218433 2.8175723034 1
7.0920636654 -26.3417460918 -14.9023982686 1.4418477558 1
10.3341276646 -26.3417460918 -12.3384649348 0.0325355219 1
13.5761916637 -26.3417460918 -10.320161448 -3.6502674685 1
16.8182556629 -26.3417460918 -7.7611080803 -7.614005576 1
20.0603196621 -26.3417460918 -6.0080716027 -10.124930799 1
23.3023836613 -26.3417460918 -3.3900836316 -10.5584591111 1
26.5444476604 -26.3417460918 0 -0 0
29.7865116596 -26.3417460918 0 -0 0
33.0285756588 -26.3417460918 0 -0 0
36.270639658 -26.3417460918 0 -0 0
39.5127036572 -26.3417460918 0 -0 0
42.7547676563 -26.3417460918 0 -0 0
-35.0547683239 -29.583810091 0 -0 0
-31.8127043247 -29.583810091 0 -0 0
-28.5706403255 -29.583810091 0 -0 0
-25.3285763264 -29.583810091 0 -0 0
-22.0865123272 -29.583810091 0 -0 0
-18.844448328 -29.583810091 0 -0 0
-15.6023843288 -29.583810091 -20.0320222311 6.3630464105 1
-12.3603203297 -29.583810091 -20.7336491524 3.4495692768 1
-9.1182563305 -29.583810091 -17.7212698229 0.4544323482 1
-5.8761923313 -29.583810091 -11.4193199114 -0.7715189538 1
-2.6341283321 -29.583810091 -9.0354217575 0.3782885197 1
0.607935667 -29.583810091 -10.1994841925 0.9621822963 1
3.8499996662 -29.583810091 -12.6472186556 0.0933123011 1
7.0920636654 -29.583810091 -14.8672414977 -0.964578498 1
10.3341276646 -29.583810091 -14.5032978424 -1.5330430655 1
13.5761916637 -29.583810091 -12.8897869684 -3.5003460455 1
16.8182556629 -29.583810091 -9.9251855323 -6.5405549502 1
20.0603196621 -29.583810091 -7.402845138 -9.138803848 1
23.3023836613 -29.583810091 0 -0 0
26.5444476604 -29.583810091 0 -0 0
29.7865116596 -29.583810091 0 -0 0
33.0285756588 -29.583810091 0 -0 0
36.270639658 -29.583810091 0 -0 0
39.5127036572 -29.583810091 0 -0 0
42.7547676563 -29.583810091 0 -0 0
-35.0547683239 -32.8258740902 0 -0 0
-31.8127043247 -32.8258740902 0 -0 0
-28.5706403255 -32.8258740902 0 -0 0
-25.3285763264 -32.8258740902 0 -0 0
-22.0865123272 -32.8258740902 0 -0 0
-18.844448328 -32.8258740902 0 -0 0
-15.6023843288 -32.8258740902 0 -0 0
-12.3603203297 -32.8258740902 0 -0 0
-9.1182563305 -32.8258740902 -19.1109496181 -1.297468002 1
-5.8761923313 -32.8258740902 -11.6818392599 -3.7511377141 1
-2.6341283321 -32.8258740902 -7.0943909424 -3.4430582269 1
0.607935667 -32.8258740902 -7.2388351605 -2.1535024308 1
3.8499996662 -32.8258740902 -9.589770445 -1.6346991119 1
7.0920636654 -32.8258740902 -13.5217899806 -2.3572032721 1
10.3341276646 -32.8258740902 -14.5709772532 -3.2321982199 1
13.5761916637 -32.8258740902 -12.7904532992 -4.4246219477 1
16.8182556629 -32.8258740902 -9.5470512666 -6.2093863573 1
20.0603196621 -32.8258740902 0 -0 0
23.3023836613 -32.8258740902 0 -0 0
26.5444476604 -32.8258740902 0 -0 0
29.7865116596 -32.8258740902 0 -0 0
33.0285756588 -32.8258740902 0 -0 0
36.270639658 -32.8258740902 0 -0 0
39.5127036572 -32.8258740902 0 -0 0
42.7547676563 -32.8258740902 0 -0 0
-35.0547683239 -36.0679380894 0 -0 0
-31.8127043247 -36.0679380894 0 -0 0
-28.5706403255 -36.0679380894 0 -0 0
-25.3285763264 -36.0679380894 0 -0 0
-22.0865123272 -36.0679380894 0 -0 0
-18.844448328 -36.0679380894 0 -0 0
-15.6023843288 -36.0679380894 0 -0 0
-12.3603203297 -36.0679380894 0 -0 0
-9.1182563305 -36.0679380894 0 -0 0
-5.8761923313 -36.0679380894 0 -0 0
-2.6341283321 -36.0679380894 0 -0 0
0.607935667 -36.0679380894 0 -0 0
3.8499996662 -36.0679380894 0 -0 0
7.0920636654 -36.0679380894 0 -0 0
10.3341276646 -36.0679380894 0 -0 0
13.5761916637 -36.0679380894 0 -0 0
16.8182556629 -36.0679380894 0 -0 0
20.0603196621 -36.0679380894 0 -0 0
23.3023836613 -36.0679380894 0 -0 0
26.5444476604 -36.0679380894 0 -0 0
29.7865116596 -36.0679380894 0 -0 0
33.0285756588 -36.0679380894 0 -0 0
36.270639658 -36.0679380894 0 -0 0
39.5127036572 -36.0679380894 0 -0 0
42.7547676563 -36.0679380894 0 -0 0
-35.0547683239 -39.3100020885 0 -0 0
-31.8127043247 -39.3100020885 0 -0 0
-28.5706403255 -39.3100020885 0 -0 0
-25.3285763264 -39.3100020885 0 -0 0
-22.0865123272 -39.3100020885 0 -0 0
-18.844448328 -39.3100020885 0 -0 0
-15.6023843288 -39.3100020885 0 -0 0
-12.3603203297 -39.3100020885 0 -0 0
-9.1182563305 -39.3100020885 0 -0 0
-5.8761923313 -39.3100020885 0 -0 0
-2.6341283321 -39.3100020885 0 -0 0
0.607935667 -39.3100020885 0 -0 0
3.8499996662 -39.3100020885 0 -0 0
7.0920636654 -39.3100020885 0 -0 0
10.3341276646 -39.3100020885 0 -0 0
13.5761916637 -39.3100020885 0 -0 0
16.8182556629 -39.3100020885 0 -0 0
20.0603196621 -39.3100020885 0 -0 0
23.3023836613 -39.3100020885 0 -0 0
26.5444476604 -39.3100020885 0 -0 0
29.7865116596 -39.3100020885 0 -0 0
33.0285756588 -39.3100020885 0 -0 0
36.270639658 -39.3100020885 0 -0 0
39.5127036572 -39.3100020885 0 -0 0
42.7547676563 -39.3100020885 0 -0 0
-35.0547683239 -42.5520660877 0 -0 0
-31.8127043247 -42.5520660877 0 -0 0
-28.5706403255 -42.5520660877 0 -0 0
-25.3285763264 -42.5520660877 0 -0 0
-22.0865123272 -42.5520660877 0 -0 0
-18.844448328 -42.5520660877 0 -0 0
-15.6023843288 -42.5520660877 0 -0 0
-12.3603203297 -42.5520660877 0 -0 0
-9.1182563305 -42.5520660877 0 -0 0
-5.8761923313 -42.5520660877 0 -0 0
-2.6341283321 -42.5520660877 0 -0 0
0.607935667 -42.5520660877 0 -0 0
3.8499996662 -42.5520660877 0 -0 0
7.0920636654 -42.5520660877 0 -0 0
10.3341276646 -42.5520660877 0 -0 0
13.5761916637 -42.5520660877 0 -0 0
16.8182556629 -42.5520660877 0 -0 0
20.0603196621 -42.5520660877 0 -0 0
23.3023836613 -42.5520660877 0 -0 0
26.5444476604 -42.5520660877 0 -0 0
29.7865116596 -42.5520660877 0 -0 0
33.0285756588 -42.5520660877 0 -0 0
36.270639658 -42.5520660877 0 -0 0
39.5127036572 -42.5520660877 0 -0 0
42.7547676563 -42.5520660877 0 -0 0
