TITLE = "B00070"
VARIABLES = "x", "y", "Vx", "Vy", "isValid"
ZONE T="Frame 0", I=25, J=25, F=POINT
-35.0547683239 35.2574698925 0 -0 0
-31.8127043247 35.2574698925 0 -0 0
-28.5706403255 35.2574698925 0 -0 0
-25.3285763264 35.2574698925 0 -0 0
-22.0865123272 35.2574698925 0 -0 0
-18.844448328 35.2574698925 0 -0 0
-15.6023843288 35.2574698925 0 -0 0
-12.3603203297 35.2574698925 0 -0 0
-9.1182563305 35.2574698925 0 -0 0
-5.8761923313 35.2574698925 0 -0 0
-2.6341283321 35.2574698925 0 -0 0
0.607935667 35.2574698925 0 -0 0
3.8499996662 35.2574698925 0 -0 0
7.0920636654 35.2574698925 0 -0 0
10.3341276646 35.2574698925 0 -0 0
13.5761916637 35.2574698925 0 -0 0
16.8182556629 35.2574698925 0 -0 0
20.0603196621 35.2574698925 0 -0 0
23.3023836613 35.2574698925 0 -0 0
26.5444476604 35.2574698925 0 -0 0
29.7865116596 35.2574698925 0 -0 0
33.0285756588 35.2574698925 0 -0 0
36.270639658 35.2574698925 0 -0 0
39.5127036572 35.2574698925 0 -0 0
42.7547676563 35.2574698925 0 -0 0
-35.0547683239 32.0154058933 0 -0 0
-31.8127043247 32.0154058933 0 -0 0
-28.5706403255 32.0154058933 0 -0 0
-25.3285763264 32.0154058933 0 -0 0
-22.0865123272 32.0154058933 0 -0 0
-18.844448328 32.0154058933 0 -0 0
-15.6023843288 32.0154058933 0 -0 0
-12.3603203297 32.0154058933 0 -0 0
-9.1182563305 32.0154058933 0 -0 0
-5.8761923313 32.0154058933 0 -0 0
-2.6341283321 32.0154058933 0 -0 0
0.607935667 32.0154058933 0 -0 0
3.8499996662 32.0154058933 0 -0 0
7.0920636654 32.0154058933 0 -0 0
10.3341276646 32.0154058933 0 -0 0
13.5761916637 32.0154058933 0 -0 0
16.8182556629 32.0154058933 0 -0 0
20.0603196621 32.0154058933 0 -0 0
23.3023836613 32.0154058933 0 -0 0
26.5444476604 32.0154058933 0 -0 0
29.7865116596 32.0154058933 0 -0 0
33.0285756588 32.0154058933 0 -0 0
36.270639658 32.0154058933 0 -0 0
39.5127036572 32.0154058933 0 -0 0
42.7547676563 32.0154058933 0 -0 0
-35.0547683239 28.7733418941 0 -0 0
-31.8127043247 28.7733418941 0 -0 0
-28.5706403255 28.7733418941 0 -0 0
-25.3285763264 28.7733418941 0 -0 0
-22.0865123272 28.7733418941 0 -0 0
-18.844448328 28.7733418941 0 -0 0
-15.6023843288 28.7733418941 0 -0 0
-12.3603203297 28.7733418941 0 -0 0
-9.1182563305 28.7733418941 0 -0 0
-5.8761923313 28.7733418941 0 -0 0
-2.6341283321 28.7733418941 0 -0 0
0.607935667 28.7733418941 0 -0 0
3.8499996662 28.7733418941 0 -0 0
7.0920636654 28.7733418941 0 -0 0
10.3341276646 28.7733418941 0 -0 0
13.5761916637 28.7733418941 0 -0 0
16.8182556629 28.7733418941 0 -0 0
20.0603196621 28.7733418941 0 -0 0
23.3023836613 28.7733418941 0 -0 0
26.5444476604 28.7733418941 0 -0 0
29.7865116596 28.7733418941 0 -0 0
33.0285756588 28.7733418941 0 -0 0
36.270639658 28.7733418941 0 -0 0
39.5127036572 28.7733418941 0 -0 0
42.7547676563 28.7733418941 0 -0 0
-35.0547683239 25.531277895 0 -0 0
-31.8127043247 25.531277895 0 -0 0
-28.5706403255 25.531277895 0 -0 0
-25.3285763264 25.531277895 0 -0 0
-22.0865123272 25.531277895 0 -0 0
-18.844448328 25.531277895 0 -0 0
-15.6023843288 25.531277895 0 -0 0
-12.3603203297 25.531277895 0 -0 0
-9.1182563305 25.531277895 10.7683030875 9.2867070991 1
-5.8761923313 25.531277895 8.7074790994 8.409757085 1
-2.6341283321 25.531277895 5.1317447942 7.2510311505 1
0.607935667 25.531277895 3.0188233486 6.7262478954 1
3.8499996662 25.531277895 2.3507382681 6.3913352375 1
7.0920636654 25.531277895 1.0064760956 5.8656751465 1
10.3341276646 25.531277895 -0.5720238827 5.4166796186 1
13.5761916637 25.531277895 -1.4667142356 4.7430105973 1
16.8182556629 25.531277895 -0.0315274433 4.0567150184 1
20.0603196621 25.531277895 0 -0 0
23.3023836613 25.531277895 0 -0 0
26.5444476604 25.531277895 0 -0 0
29.7865116596 25.531277895 0 -0 0
33.0285756588 25.531277895 0 -0 0
36.270639658 25.531277895 0 -0 0
39.5127036572 25.531277895 0 -0 0
42.7547676563 25.531277895 0 -0 0
-35.0547683239 22.2892138958 0 -0 0
-31.8127043247 22.2892138958 0 -0 0
-28.5706403255 22.2892138958 0 -0 0
-25.3285763264 22.2892138958 0 -0 0
-22.0865123272 22.2892138958 0 -0 0
-18.844448328 22.2892138958 0 -0 0
-15.6023843288 22.2892138958 4.1341145052 3.3240039028 1
-12.3603203297 22.2892138958 7.1030729461 5.6036256178 1
-9.1182563305 22.2892138958 8.7889487472 6.3517169904 1
-5.8761923313 22.2892138958 9.0315762403 5.7888535743 1
-2.6341283321 22.2892138958 7.6262571231 4.6012847515 1
0.607935667 22.2892138958 7.1137066947 4.0939600114 1
3.8499996662 22.2892138958 6.2140271864 3.6953294051 1
7.0920636654 22.2892138958 3.9526589962 3.1610235432 1
10.3341276646 22.2892138958 2.1484653045 3.1123416393 1
13.5761916637 22.2892138958 1.8738210731 2.7655065497 1
16.8182556629 22.2892138958 2.9397915702 2.3887494357 1
20.0603196621 22.2892138958 4.1754233185 2.0478271004 1
23.3023836613 22.2892138958 0 -0 0
26.5444476604 22.2892138958 0 -0 0
29.7865116596 22.2892138958 0 -0 0
33.0285756588 22.2892138958 0 -0 0
36.270639658 22.2892138958 0 -0 0
39.5127036572 22.2892138958 0 -0 0
42.7547676563 22.2892138958 0 -0 0
-35.0547683239 19.0471498966 0 -0 0
-31.8127043247 19.0471498966 0 -0 0
-28.5706403255 19.0471498966 0 -0 0
-25.3285763264 19.0471498966 0 -0 0
-22.0865123272 19.0471498966 0 -0 0
-18.844448328 19.0471498966 0.897717422 1.8464909079 1
-15.6023843288 19.0471498966 2.8595317989 2.8281139601 1
-12.3603203297 19.0471498966 5.4286956519 3.5940856588 1
-9.1182563305 19.0471498966 7.5141060699 3.4472280284 1
-5.8761923313 19.0471498966 8.5891352418 2.3342975954 1
-2.6341283321 19.0471498966 8.5658519882 1.356078321 1
0.607935667 19.0471498966 8.3167973847 0.9763125941 1
3.8499996662 19.0471498966 6.9467926513 0.9899340463 1
7.0920636654 19.0471498966 4.9312498086 1.2418701457 1
10.3341276646 19.0471498966 4.0906296051 1.8377965246 1
13.5761916637 19.0471498966 4.6398042363 1.6326721837 1
16.8182556629 19.0471498966 5.3795668757 1.0421952311 1
20.0603196621 19.0471498966 5.0650237433 0.311456298 1
23.3023836613 19.0471498966 5.9602755928 -1.1674671187 1
26.5444476604 19.0471498966 0 -0 0
29.7865116596 19.0471498966 0 -0 0
33.0285756588 19.0471498966 0 -0 0
36.270639658 19.0471498966 0 -0 0
39.5127036572 19.0471498966 0 -0 0
42.7547676563 19.0471498966 0 -0 0
-35.0547683239 15.8050858974 0 -0 0
-31.8127043247 15.8050858974 0 -0 0
-28.5706403255 15.8050858974 0 -0 0
-25.3285763264 15.8050858974 0 -0 0
-22.0865123272 15.8050858974 -2.5806089164 2.1442727065 1
-18.844448328 15.8050858974 -0.0473800676 1.8263664073 1
-15.6023843288 15.8050858974 2.612899062 2.7245455722 1
-12.3603203297 15.8050858974 5.3651190118 3.0043428751 1
-9.1182563305 15.8050858974 7.4953253565 2.1041097583 1
-5.8761923313 15.8050858974 8.4165121031 0.6418878724 1
-2.6341283321 15.8050858974 7.6663403589 -0.5149815041 1
0.607935667 15.8050858974 6.5068897666 -0.7692257894 1
3.8499996662 15.8050858974 4.5091040582 -0.2019851952 1
7.0920636654 15.8050858974 3.1403490576 0.7320761343 1
10.3341276646 15.8050858974 3.2858579187 1.2940648281 1
13.5761916637 15.8050858974 4.5035492546 0.4731896989 1
16.8182556629 15.8050858974 5.2986395134 -0.925970922 1
20.0603196621 15.8050858974 4.5057051114 -2.2497670234 1
23.3023836613 15.8050858974 4.8631189965 -3.3121388399 1
26.5444476604 15.8050858974 5.8260961517 -3.2038459854 1
29.7865116596 15.8050858974 0 -0 0
33.0285756588 15.8050858974 0 -0 0
36.270639658 15.8050858974 0 -0 0
39.5127036572 15.8050858974 0 -0 0
42.7547676563 15.8050858974 0 -0 0
-35.0547683239 12.5630218983 0 -0 0
-31.8127043247 12.5630218983 0 -0 0
-28.5706403255 12.5630218983 0 -0 0
-25.3285763264 12.5630218983 0 -0 0
-22.0865123272 12.5630218983 -3.5500859498 5.3528904122 1
-18.844448328 12.5630218983 -1.1997154455 4.6653121892 1
-15.6023843288 12.5630218983 1.9017380601 3.9448070276 1
-12.3603203297 12.5630218983 4.6793029148 3.7452353767 1
-9.1182563305 12.5630218983 6.7457931228 2.6875333755 1
-5.8761923313 12.5630218983 7.6172327185 1.3698909017 1
-2.6341283321 12.5630218983 6.2121654198 0.402914013 1
0.607935667 12.5630218983 4.235243514 0.0158844979 1
3.8499996662 12.5630218983 2.0300917058 0.2534455577 1
7.0920636654 12.5630218983 1.2589870902 0.1760778691 1
10.3341276646 12.5630218983 1.2928860514 -0.8284974341 1
13.5761916637 12.5630218983 1.8669716986 -2.7806739384 1
16.8182556629 12.5630218983 2.6728191999 -4.13993864 1
20.0603196621 12.5630218983 2.7630158406 -4.7169078211 1
23.3023836613 12.5630218983 3.1055567292 -4.7802933328 1
26.5444476604 12.5630218983 4.449766364 -4.2595575932 1
29.7865116596 12.5630218983 6.5953366608 -4.0023318697 1
33.0285756588 12.5630218983 0 -0 0
36.270639658 12.5630218983 0 -0 0
39.5127036572 12.5630218983 0 -0 0
42.7547676563 12.5630218983 0 -0 0
-35.0547683239 9.3209578991 0 -0 0
-31.8127043247 9.3209578991 0 -0 0
-28.5706403255 9.3209578991 0 -0 0
-25.3285763264 9.3209578991 -3.7413666101 11.5599723579 1
-22.0865123272 9.3209578991 -2.72960006 11.0516817094 1
-18.844448328 9.3209578991 -1.3658091159 9.9434529464 1
-15.6023843288 9.3209578991 0.7031885588 6.8989954337 1
-12.3603203297 9.3209578991 2.9710711202 4.9002109055 1
-9.1182563305 9.3209578991 4.9991743953 3.288230569 1
-5.8761923313 9.3209578991 6.181150068 2.0837012825 1
-2.6341283321 9.3209578991 4.938711066 1.2969226971 1
0.607935667 9.3209578991 3.3727054329 0.3998199886 1
3.8499996662 9.3209578991 1.8449614272 -0.4486866048 1
7.0920636654 9.3209578991 1.5734863657 -1.7579123676 1
10.3341276646 9.3209578991 0.9674427832 -4.3012420207 1
13.5761916637 9.3209578991 0.3566175164 -6.9430781765 1
16.8182556629 9.3209578991 0.6837505204 -7.7656921445 1
20.0603196621 9.3209578991 1.5348551628 -6.9990755004 1
23.3023836613 9.3209578991 2.5794080981 -6.0568911916 1
26.5444476604 9.3209578991 4.3027900709 -5.852020179 1
29.7865116596 9.3209578991 6.4574536147 -6.6023459129 1
33.0285756588 9.3209578991 0 -0 0
36.270639658 9.3209578991 0 -0 0
39.5127036572 9.3209578991 0 -0 0
42.7547676563 9.3209578991 0 -0 0
-35.0547683239 6.0788938999 0 -0 0
-31.8127043247 6.0788938999 0 -0 0
-28.5706403255 6.0788938999 0 -0 0
-25.3285763264 6.0788938999 -1.9194665101 14.2547462721 1
-22.0865123272 6.0788938999 -1.6245753411 15.0778367027 1
-18.844448328 6.0788938999 -1.6131568485 13.2743278125 1
-15.6023843288 6.0788938999 -0.978633688 8.5330974578 1
-12.3603203297 6.0788938999 0.4282351401 4.7715566778 1
-9.1182563305 6.0788938999 1.9722478633 2.5351342269 1
-5.8761923313 6.0788938999 3.1603173039 1.4145533706 1
-2.6341283321 6.0788938999 2.7911047829 0.7881184474 1
0.607935667 6.0788938999 2.3499888512 -0.3628806729 1
3.8499996662 6.0788938999 1.8859115348 -1.7748704158 1
7.0920636654 6.0788938999 1.5774694168 -3.5034291623 1
10.3341276646 6.0788938999 0.7434795298 -6.1546330292 1
13.5761916637 6.0788938999 -0.0687877361 -8.3780074134 1
16.8182556629 6.0788938999 0.2669166812 -8.5859878116 1
20.0603196621 6.0788938999 1.345166636 -7.0662373848 1
23.3023836613 6.0788938999 2.6113851311 -6.1360413307 1
26.5444476604 6.0788938999 4.163194115 -6.8195536199 1
29.7865116596 6.0788938999 5.7177042607 -8.2803259639 1
33.0285756588 6.0788938999 6.7405055367 -9.3125646994 1
36.270639658 6.0788938999 0 -0 0
39.5127036572 6.0788938999 0 -0 0
42.7547676563 6.0788938999 0 -0 0
-35.0547683239 2.8368299007 0 -0 0
-31.8127043247 2.8368299007 0 -0 0
-28.5706403255 2.8368299007 -2.5256800097 9.6668335698 1
-25.3285763264 2.8368299007 -1.7840294859 12.1705315395 1
-22.0865123272 2.8368299007 -1.3938399346 12.9421338289 1
-18.844448328 2.8368299007 -1.950624076 11.3988942249 1
-15.6023843288 2.8368299007 -2.2738300389 7.5474016781 1
-12.3603203297 2.8368299007 -1.9067301972 3.6172725933 1
-9.1182563305 2.8368299007 -1.4154960296 1.1281922537 1
-5.8761923313 2.8368299007 -1.0485701057 -0.3485227873 1
-2.6341283321 2.8368299007 -0.8702119802 -1.5068071336 1
0.607935667 2.8368299007 -0.3235580635 -2.6422845377 1
3.8499996662 2.8368299007 0.1634140786 -3.5470698638 1
7.0920636654 2.8368299007 -0.3200518146 -4.3470576013 1
10.3341276646 2.8368299007 -0.7305666571 -6.4769094676 1
13.5761916637 2.8368299007 -0.7546038567 -8.3704280972 1
16.8182556629 2.8368299007 0.5632254808 -8.2504247734 1
20.0603196621 2.8368299007 1.9652632194 -6.2915516766 1
23.3023836613 2.8368299007 3.0958260852 -5.4204122099 1
26.5444476604 2.8368299007 3.6953121944 -6.6617714719 1
29.7865116596 2.8368299007 3.9531550849 -8.650266162 1
33.0285756588 2.8368299007 3.9457354953 -9.8593177659 1
36.270639658 2.8368299007 0 -0 0
39.5127036572 2.8368299007 0 -0 0
42.7547676563 2.8368299007 0 -0 0
-35.0547683239 -0.4052340984 0 -0 0
-31.8127043247 -0.4052340984 0 -0 0
-28.5706403255 -0.4052340984 -4.6197801309 5.0071235889 1
-25.3285763264 -0.4052340984 -3.283554111 5.8689958907 1
-22.0865123272 -0.4052340984 -2.5629094527 6.838259452 1
-18.844448328 -0.4052340984 -2.1227941527 6.7830326808 1
-15.6023843288 -0.4052340984 -1.3669986114 5.610624604 1
-12.3603203297 -0.4052340984 -0.9084610016 3.5153223058 1
-9.1182563305 -0.4052340984 -2.2807760344 1.7672609055 1
-5.8761923313 -0.4052340984 -4.4296299367 -0.5183010028 1
-2.6341283321 -0.4052340984 -4.9425801345 -2.7425493921 1
0.607935667 -0.4052340984 -4.0073057393 -3.9326499879 1
3.8499996662 -0.4052340984 -2.8617260022 -4.2064244791 1
7.0920636654 -0.4052340984 -3.2513149934 -4.7594811622 1
10.3341276646 -0.4052340984 -2.8644935909 -6.5246293884 1
13.5761916637 -0.4052340984 -1.7932326393 -7.9827935683 1
16.8182556629 -0.4052340984 0.4698058114 -7.4675305045 1
20.0603196621 -0.4052340984 2.049714381 -5.6684921488 1
23.3023836613 -0.4052340984 2.3643295262 -5.1129598537 1
26.5444476604 -0.4052340984 1.8813381896 -6.4745241358 1
29.7865116596 -0.4052340984 1.0664170674 -8.4840393357 1
33.0285756588 -0.4052340984 0.669134249 -9.955350619 1
36.270639658 -0.4052340984 0 -0 0
39.5127036572 -0.4052340984 0 -0 0
42.7547676563 -0.4052340984 0 -0 0
-35.0547683239 -3.6472980976 0 -0 0
-31.8127043247 -3.6472980976 0 -0 0
-28.5706403255 -3.6472980976 -6.4460173076 -0.5316619178 1
-25.3285763264 -3.6472980976 -4.6097916296 -0.4109228022 1
-22.0865123272 -3.6472980976 -3.4921870031 1.2263978723 1
-18.844448328 -3.6472980976 -1.8041423618 3.4489608663 1
-15.6023843288 -3.6472980976 -0.0577895781 4.902765324 1
-12.3603203297 -3.6472980976 1.8989753025 4.9042384929 1
-9.1182563305 -3.6472980976 -1.619934814 3.8266047802 1
-5.8761923313 -3.6472980976 -5.9818812637 1.2712687558 1
-2.6341283321 -3.6472980976 -8.3879509255 -2.0928823942 1
0.607935667 -3.6472980976 -7.319934629 -3.5892823857 1
3.8499996662 -3.6472980976 -5.9836415782 -3.7567975931 1
7.0920636654 -3.6472980976 -6.1793486896 -4.2750106179 1
10.3341276646 -3.6472980976 -5.3369485455 -5.5782481034 1
13.5761916637 -3.6472980976 -3.6029361455 -6.9998997986 1
16.8182556629 -3.6472980976 -1.3130325938 -6.7323090536 1
20.0603196621 -3.6472980976 0.0173402544 -5.9061388277 1
23.3023836613 -3.6472980976 -0.2583582089 -6.1958364651 1
26.5444476604 -3.6472980976 -1.0207861991 -8.0005929744 1
29.7865116596 -3.6472980976 -1.849277217 -10.1586002099 1
33.0285756588 -3.6472980976 -2.0675305447 -11.2339077711 1
36.270639658 -3.6472980976 0 -0 0
39.5127036572 -3.6472980976 0 -0 0
42.7547676563 -3.6472980976 0 -0 0
-35.0547683239 -6.8893620968 0 -0 0
-31.8127043247 -6.8893620968 0 -0 0
-28.5706403255 -6.8893620968 -7.781792832 -5.4286974636 1
-25.3285763264 -6.8893620968 -4.8354748129 -4.7745754812 1
-22.0865123272 -6.8893620968 -3.4806740031 -1.1019414511 1
-18.844448328 -6.8893620968 -0.9887552696 2.6134036049 1
-15.6023843288 -6.8893620968 2.8153183158 5.2879483961 1
-12.3603203297 -6.8893620968 6.2733573321 5.9380920074 1
-9.1182563305 -6.8893620968 1.8072754498 4.900345571 1
-5.8761923313 -6.8893620968 -5.6651230941 2.8053874852 1
-2.6341283321 -6.8893620968 -10.0675016722 -0.0543482558 1
0.607935667 -6.8893620968 -8.8067433222 -1.3031623023 1
3.8499996662 -6.8893620968 -7.368738517 -2.0492268976 1
7.0920636654 -6.8893620968 -6.9712891028 -3.400733987 1
10.3341276646 -6.8893620968 -6.1729137288 -4.6732480974 1
13.5761916637 -6.8893620968 -4.8344119815 -6.0899078065 1
16.8182556629 -6.8893620968 -3.553910633 -6.240718143 1
20.0603196621 -6.8893620968 -3.1356873946 -6.3719723823 1
23.3023836613 -6.8893620968 -3.4606326871 -7.4123212459 1
26.5444476604 -6.8893620968 -3.5708277682 -9.5241158487 1
29.7865116596 -6.8893620968 -3.6731107945 -11.953321417 1
33.0285756588 -6.8893620968 -3.6210308496 -12.7721581065 1
36.270639658 -6.8893620968 0 -0 0
39.5127036572 -6.8893620968 0 -0 0
42.7547676563 -6.8893620968 0 -0 0
-35.0547683239 -10.131426096 0 -0 0
-31.8127043247 -10.131426096 0 -0 0
-28.5706403255 -10.131426096 -8.5460313909 -7.1044987102 1
-25.3285763264 -10.131426096 -5.0031938303 -4.3723421181 1
-22.0865123272 -10.131426096 -2.974867119 1.1418394463 1
-18.844448328 -10.131426096 -0.9624635541 4.9156723844 1
-15.6023843288 -10.131426096 1.5825607414 6.170849662 1
-12.3603203297 -10.131426096 4.25519304 5.4781734716 1
-9.1182563305 -10.131426096 1.183629704 4.19578288 1
-5.8761923313 -10.131426096 -4.8852044512 2.9880936327 1
-2.6341283321 -10.131426096 -8.8754879799 0.5887420012 1
0.607935667 -10.131426096 -7.3898127722 -1.1874660875 1
3.8499996662 -10.131426096 -5.948679861 -2.3984131997 1
7.0920636654 -10.131426096 -5.5925093679 -3.7167641775 1
10.3341276646 -10.131426096 -5.7115676173 -4.6988656547 1
13.5761916637 -10.131426096 -5.4476653802 -5.9887800055 1
16.8182556629 -10.131426096 -5.0390767686 -6.4785025069 1
20.0603196621 -10.131426096 -5.1191109902 -6.8031986983 1
23.3023836613 -10.131426096 -5.0554313883 -7.8827968373 1
26.5444476604 -10.131426096 -4.286334603 -9.8950802298 1
29.7865116596 -10.131426096 -3.8445273781 -12.3063939982 1
33.0285756588 -10.131426096 -3.6902127174 -13.2486749281 1
36.270639658 -10.131426096 0 -0 0
39.5127036572 -10.131426096 0 -0 0
42.7547676563 -10.131426096 0 -0 0
-35.0547683239 -13.3734900951 0 -0 0
-31.8127043247 -13.3734900951 0 -0 0
-28.5706403255 -13.3734900951 0 -0 0
-25.3285763264 -13.3734900951 -5.6497682002 0.4964442304 1
-22.0865123272 -13.3734900951 -3.9382090187 6.5254687836 1
-18.844448328 -13.3734900951 -4.1139131607 9.3150834889 1
-15.6023843288 -13.3734900951 -3.2608074061 7.7003358657 1
-12.3603203297 -13.3734900951 -2.2538981765 4.4760509084 1
-9.1182563305 -13.3734900951 -2.3387078926 2.5576209608 1
-5.8761923313 -13.3734900951 -5.2979655817 2.0095091611 1
-2.6341283321 -13.3734900951 -6.8103057792 0.0927089575 1
0.607935667 -13.3734900951 -4.8823339006 -2.6492542356 1
3.8499996662 -13.3734900951 -3.4498346827 -4.490628003 1
7.0920636654 -13.3734900951 -3.6082222219 -5.6171948343 1
10.3341276646 -13.3734900951 -4.7498492529 -6.6049667584 1
13.5761916637 -13.3734900951 -5.3101845192 -7.834320857 1
16.8182556629 -13.3734900951 -5.0074152636 -8.2788875182 1
20.0603196621 -13.3734900951 -4.9062119775 -8.1984813057 1
23.3023836613 -13.3734900951 -4.6375647419 -8.8824126886 1
26.5444476604 -13.3734900951 -3.6234240318 -10.1831419524 1
29.7865116596 -13.3734900951 -3.0779424377 -11.9982622753 1
33.0285756588 -13.3734900951 -2.9631995253 -12.6849129364 1
36.270639658 -13.3734900951 0 -0 0
39.5127036572 -13.3734900951 0 -0 0
42.7547676563 -13.3734900951 0 -0 0
-35.0547683239 -16.6155540943 0 -0 0
-31.8127043247 -16.6155540943 0 -0 0
-28.5706403255 -16.6155540943 0 -0 0
-25.3285763264 -16.6155540943 -6.4519721827 5.4776740617 1
-22.0865123272 -16.6155540943 -6.580154477 9.8370303128 1
-18.844448328 -16.6155540943 -9.3710977216 11.9687976911 1
-15.6023843288 -16.6155540943 -11.5795369095 9.4792124311 1
-12.3603203297 -16.6155540943 -11.9566572582 5.0107172875 1
-9.1182563305 -16.6155540943 -9.3355242725 1.6443761613 1
-5.8761923313 -16.6155540943 -7.3302428855 0.5450263807 1
-2.6341283321 -16.6155540943 -5.3417946943 -1.1686507264 1
0.607935667 -16.6155540943 -3.0395494661 -4.0291786277 1
3.8499996662 -16.6155540943 -1.897454578 -5.767301045 1
7.0920636654 -16.6155540943 -2.8732948613 -6.8687464075 1
10.3341276646 -16.6155540943 -4.6296892218 -8.1048706211 1
13.5761916637 -16.6155540943 -5.3145693025 -9.4424795296 1
16.8182556629 -16.6155540943 -4.9115285498 -10.1760306443 1
20.0603196621 -16.6155540943 -4.4525270081 -10.3166698054 1
23.3023836613 -16.6155540943 -4.3717023057 -10.3281338911 1
26.5444476604 -16.6155540943 -3.4833063224 -10.513252545 1
29.7865116596 -16.6155540943 -2.8761267634 -10.9813234804 1
33.0285756588 -16.6155540943 0 -0 0
36.270639658 -16.6155540943 0 -0 0
39.5127036572 -16.6155540943 0 -0 0
42.7547676563 -16.6155540943 0 -0 0
-35.0547683239 -19.8576180935 0 -0 0
-31.8127043247 -19.8576180935 0 -0 0
-28.5706403255 -19.8576180935 0 -0 0
-25.3285763264 -19.8576180935 0 -0 0
-22.0865123272 -19.8576180935 -8.7623562232 9.424463934 1
-18.844448328 -19.8576180935 -12.5344425851 10.5879236953 1
-15.6023843288 -19.8576180935 -15.6635232147 9.0164085497 1
-12.3603203297 -19.8576180935 -17.0501872258 5.0634596903 1
-9.1182563305 -19.8576180935 -14.1223766638 1.3046244502 1
-5.8761923313 -19.8576180935 -9.5159845848 -0.5678783119 1
-2.6341283321 -19.8576180935 -4.8479108458 -1.8399757818 1
0.607935667 -19.8576180935 -1.8471387218 -3.2438256555 1
3.8499996662 -19.8576180935 -1.7152981136 -4.6692929758 1
7.0920636654 -19.8576180935 -3.7160235169 -6.3334918479 1
10.3341276646 -19.8576180935 -5.6343631842 -8.7148307523 1
13.5761916637 -19.8576180935 -5.9561347777 -10.2484770954 1
16.8182556629 -19.8576180935 -5.8150167386 -10.7626084854 1
20.0603196621 -19.8576180935 -5.580985498 -11.1277007232 1
23.3023836613 -19.8576180935 -5.622998739 -11.1462990644 1
26.5444476604 -19.8576180935 -4.7258984083 -10.8833702843 1
29.7865116596 -19.8576180935 -3.712242917 -10.4661002728 1
33.0285756588 -19.8576180935 0 -0 0
36.270639658 -19.8576180935 0 -0 0
39.5127036572 -19.8576180935 0 -0 0
42.7547676563 -19.8576180935 0 -0 0
-35.0547683239 -23.0996820927 0 -0 0
-31.8127043247 -23.0996820927 0 -0 0
-28.5706403255 -23.0996820927 0 -0 0
-25.3285763264 -23.0996820927 0 -0 0
-22.0865123272 -23.0996820927 -8.9661299832 6.7375622185 1
-18.844448328 -23.0996820927 -11.2736576644 7.8638923282 1
-15.6023843288 -23.0996820927 -14.2070625843 8.2324278981 1
-12.3603203297 -23.0996820927 -16.5483279149 5.6001768508 1
-9.1182563305 -23.0996820927 -15.130240328 1.5341809292 1
-5.8761923313 -23.0996820927 -10.6020581448 -1.6192504654 1
-2.6341283321 -23.0996820927 -5.4758147106 -2.5614643644 1
0.607935667 -23.0996820927 -2.4046956805 -2.6306214731 1
3.8499996662 -23.0996820927 -2.9462029797 -3.5351573962 1
7.0920636654 -23.0996820927 -5.4628523951 -5.7748568098 1
10.3341276646 -23.0996820927 -6.6420414568 -8.5866943529 1
13.5761916637 -23.0996820927 -6.5920153128 -9.9974339102 1
16.8182556629 -23.0996820927 -6.5810627147 -9.9886202603 1
20.0603196621 -23.0996820927 -6.8511958006 -10.0580092595 1
23.3023836613 -23.0996820927 -6.8818029286 -9.934158003 1
26.5444476604 -23.0996820927 -6.183814393 -9.7651509064 1
29.7865116596 -23.0996820927 0 -0 0
33.0285756588 -23.0996820927 0 -0 0
36.270639658 -23.0996820927 0 -0 0
39.5127036572 -23.0996820927 0 -0 0
42.7547676563 -23.0996820927 0 -0 0
-35.0547683239 -26.3417460918 0 -0 0
-31.8127043247 -26.3417460918 0 -0 0
-28.5706403255 -26.3417460918 0 -0 0
-25.3285763264 -26.3417460918 0 -0 0
-22.0865123272 -26.3417460918 0 -0 0
-18.844448328 -26.3417460918 -7.2442972683 6.6431441444 1
-15.6023843288 -26.3417460918 -10.4547448858 7.4439042462 1
-12.3603203297 -26.3417460918 -13.3747231053 5.7853220755 1
-9.1182563305 -26.3417460918 -14.1590069054 2.9019590006 1
-5.8761923313 -26.3417460918 -11.3012961111 -0.5111682191 1
-2.6341283321 -26.3417460918 -7.3924088586 -2.4413194304 1
0.607935667 -26.3417460918 -4.9511646114 -3.4070979918 1
3.8499996662 -26.3417460918 -5.428328492 -4.5604077135 1
7.0920636654 -26.3417460918 -7.5505732635 -5.9938018837 1
10.3341276646 -26.3417460918 -7.8777018894 -7.6250010496 1
13.5761916637 -26.3417460918 -7.2559992833 -8.3037167084 1
16.8182556629 -26.3417460918 -6.9077299752 -8.1587018222 1
20.0603196621 -26.3417460918 -7.0364925996 -8.3326438381 1
23.3023836613 -26.3417460918 -7.1251876891 -8.8227027014 1
26.5444476604 -26.3417460918 0 -0 0
29.7865116596 -26.3417460918 0 -0 0
33.0285756588 -26.3417460918 0 -0 0
36.270639658 -26.3417460918 0 -0 0
39.5127036572 -26.3417460918 0 -0 0
42.7547676563 -26.3417460918 0 -0 0
-35.0547683239 -29.583810091 0 -0 0
-31.8127043247 -29.583810091 0 -0 0
-28.5706403255 -29.583810091 0 -0 0
-25.3285763264 -29.583810091 0 -0 0
-22.0865123272 -29.583810091 0 -0 0
-18.844448328 -29.583810091 0 -0 0
-15.6023843288 -29.583810091 -9.0709921871 8.2196455392 1
-12.3603203297 -29.583810091 -11.6145692807 6.6307802753 1
-9.1182563305 -29.583810091 -13.2389005028 3.7165969023 1
-5.8761923313 -29.583810091 -12.2156680554 0.0643496084 1
-2.6341283321 -29.583810091 -9.7966880118 -2.5717792636 1
0.607935667 -29.583810091 -8.2205519653 -4.8431121017 1
3.8499996662 -29.583810091 -8.000309754 -6.6649382263 1
7.0920636654 -29.583810091 -9.4584799728 -7.7437398457 1
10.3341276646 -29.583810091 -9.1313664439 -8.0402782523 1
13.5761916637 -29.583810091 -8.0386061045 -7.7815168582 1
16.8182556629 -29.583810091 -7.0587190606 -7.2813786094 1
20.0603196621 -29.583810091 -6.5333645337 -7.3219588396 1
23.3023836613 -29.583810091 0 -0 0
26.5444476604 -29.583810091 0 -0 0
29.7865116596 -29.583810091 0 -0 0
33.0285756588 -29.583810091 0 -0 0
36.270639658 -29.583810091 0 -0 0
39.5127036572 -29.583810091 0 -0 0
42.7547676563 -29.583810091 0 -0 0
-35.0547683239 -32.8258740902 0 -0 0
-31.8127043247 -32.8258740902 0 -0 0
-28.5706403255 -32.8258740902 0 -0 0
-25.3285763264 -32.8258740902 0 -0 0
-22.0865123272 -32.8258740902 0 -0 0
-18.844448328 -32.8258740902 0 -0 0
-15.6023843288 -32.8258740902 0 -0 0
-12.3603203297 -32.8258740902 0 -0 0
-9.1182563305 -32.8258740902 -13.3406448667 3.8803088643 1
-5.8761923313 -32.8258740902 -13.0907949513 -0.0556725018 1
-2.6341283321 -32.8258740902 -11.4490188017 -3.6021432491 1
0.607935667 -32.8258740902 -10.2163167843 -6.568681937 1
3.8499996662 -32.8258740902 -9.7369097861 -8.5083129549 1
7.0920636654 -32.8258740902 -10.2342049609 -9.3008868397 1
10.3341276646 -32.8258740902 -9.986293505 -9.0369513892 1
13.5761916637 -32.8258740902 -8.4964134707 -8.1446126639 1
16.8182556629 -32.8258740902 -7.2645804388 -7.4016313362 1
20.0603196621 -32.8258740902 0 -0 0
23.3023836613 -32.8258740902 0 -0 0
26.5444476604 -32.8258740902 0 -0 0
29.7865116596 -32.8258740902 0 -0 0
33.0285756588 -32.8258740902 0 -0 0
36.270639658 -32.8258740902 0 -0 0
39.5127036572 -32.8258740902 0 -0 0
42.7547676563 -32.8258740902 0 -0 0
-35.0547683239 -36.0679380894 0 -0 0
-31.8127043247 -36.0679380894 0 -0 0
-28.5706403255 -36.0679380894 0 -0 0
-25.3285763264 -36.0679380894 0 -0 0
-22.0865123272 -36.0679380894 0 -0 0
-18.844448328 -36.0679380894 0 -0 0
-15.6023843288 -36.0679380894 0 -0 0
-12.3603203297 -36.0679380894 0 -0 0
-9.1182563305 -36.0679380894 0 -0 0
-5.8761923313 -36.0679380894 0 -0 0
-2.6341283321 -36.0679380894 0 -0 0
0.607935667 -36.0679380894 0 -0 0
3.8499996662 -36.0679380894 0 -0 0
7.0920636654 -36.0679380894 0 -0 0
10.3341276646 -36.0679380894 0 -0 0
13.5761916637 -36.0679380894 0 -0 0
16.8182556629 -36.0679380894 0 -0 0
20.0603196621 -36.0679380894 0 -0 0
23.3023836613 -36.0679380894 0 -0 0
26.5444476604 -36.0679380894 0 -0 0
29.7865116596 -36.0679380894 0 -0 0
33.0285756588 -36.0679380894 0 -0 0
36.270639658 -36.0679380894 0 -0 0
39.5127036572 -36.0679380894 0 -0 0
42.7547676563 -36.0679380894 0 -0 0
-35.0547683239 -39.3100020885 0 -0 0
-31.8127043247 -39.3100020885 0 -0 0
-28.5706403255 -39.3100020885 0 -0 0
-25.3285763264 -39.3100020885 0 -0 0
-22.0865123272 -39.3100020885 0 -0 0
-18.844448328 -39.3100020885 0 -0 0
-15.6023843288 -39.3100020885 0 -0 0
-12.3603203297 -39.3100020885 0 -0 0
-9.1182563305 -39.3100020885 0 -0 0
-5.8761923313 -39.3100020885 0 -0 0
-2.6341283321 -39.3100020885 0 -0 0
0.607935667 -39.3100020885 0 -0 0
3.8499996662 -39.3100020885 0 -0 0
7.0920636654 -39.3100020885 0 -0 0
10.3341276646 -39.3100020885 0 -0 0
13.5761916637 -39.3100020885 0 -0 0
16.8182556629 -39.3100020885 0 -0 0
20.0603196621 -39.3100020885 0 -0 0
23.3023836613 -39.3100020885 0 -0 0
26.5444476604 -39.3100020885 0 -0 0
29.7865116596 -39.3100020885 0 -0 0
33.0285756588 -39.3100020885 0 -0 0
36.270639658 -39.3100020885 0 -0 0
39.5127036572 -39.3100020885 0 -0 0
42.7547676563 -39.3100020885 0 -0 0
-35.0547683239 -42.5520660877 0 -0 0
-31.8127043247 -42.5520660877 0 -0 0
-28.5706403255 -42.5520660877 0 -0 0
-25.3285763264 -42.5520660877 0 -0 0
-22.0865123272 -42.5520660877 0 -0 0
-18.844448328 -42.5520660877 0 -0 0
-15.6023843288 -42.5520660877 0 -0 0
-12.3603203297 -42.5520660877 0 -0 0
-9.1182563305 -42.5520660877 0 -0 0
-5.8761923313 -42.5520660877 0 -0 0
-2.6341283321 -42.5520660877 0 -0 0
0.607935667 -42.5520660877 0 -0 0
3.8499996662 -42.5520660877 0 -0 0
7.0920636654 -42.5520660877 0 -0 0
10.3341276646 -42.5520660877 0 -0 0
13.5761916637 -42.5520660877 0 -0 0
16.8182556629 -42.5520660877 0 -0 0
20.0603196621 -42.5520660877 0 -0 0
23.3023836613 -42.5520660877 0 -0 0
26.5444476604 -42.5520660877 0 -0 0
29.7865116596 -42.5520660877 0 -0 0
33.0285756588 -42.5520660877 0 -0 0
36.270639658 -42.5520660877 0 -0 0
39.5127036572 -42.5520660877 0 -0 0
42.7547676563 -42.5520660877 0 -0 0
