TITLE = "B00070"
VARIABLES = "x", "y", "Vx", "Vy", "isValid"
ZONE T="Frame 0", I=25, J=25, F=POINT
-35.0547683239 35.2574698925 0 -0 0
-31.8127043247 35.2574698925 0 -0 0
-28.5706403255 35.2574698925 0 -0 0
-25.3285763264 35.2574698925 0 -0 0
-22.0865123272 35.2574698925 0 -0 0
-18.844448328 35.2574698925 0 -0 0
-15.6023843288 35.2574698925 0 -0 0
-12.3603203297 35.2574698925 0 -0 0
-9.1182563305 35.2574698925 0 -0 0
-5.8761923313 35.2574698925 0 -0 0
-2.6341283321 35.2574698925 0 -0 0
0.607935667 35.2574698925 0 -0 0
3.8499996662 35.2574698925 0 -0 0
7.0920636654 35.2574698925 0 -0 0
10.3341276646 35.2574698925 0 -0 0
13.5761916637 35.2574698925 0 -0 0
16.8182556629 35.2574698925 0 -0 0
20.0603196621 35.2574698925 0 -0 0
23.3023836613 35.2574698925 0 -0 0
26.5444476604 35.2574698925 0 -0 0
29.7865116596 35.2574698925 0 -0 0
33.0285756588 35.2574698925 0 -0 0
36.270639658 35.2574698925 0 -0 0
39.5127036572 35.2574698925 0 -0 0
42.7547676563 35.2574698925 0 -0 0
-35.0547683239 32.0154058933 0 -0 0
-31.8127043247 32.0154058933 0 -0 0
-28.5706403255 32.0154058933 0 -0 0
-25.3285763264 32.0154058933 0 -0 0
-22.0865123272 32.0154058933 0 -0 0
-18.844448328 32.0154058933 0 -0 0
-15.6023843288 32.0154058933 0 -0 0
-12.3603203297 32.0154058933 0 -0 0
-9.1182563305 32.0154058933 0 -0 0
-5.8761923313 32.0154058933 0 -0 0
-2.6341283321 32.0154058933 0 -0 0
0.607935667 32.0154058933 0 -0 0
3.8499996662 32.0154058933 0 -0 0
7.0920636654 32.0154058933 0 -0 0
10.3341276646 32.0154058933 0 -0 0
13.5761916637 32.0154058933 0 -0 0
16.8182556629 32.0154058933 0 -0 0
20.0603196621 32.0154058933 0 -0 0
23.3023836613 32.0154058933 0 -0 0
26.5444476604 32.0154058933 0 -0 0
29.7865116596 32.0154058933 0 -0 0
33.0285756588 32.0154058933 0 -0 0
36.270639658 32.0154058933 0 -0 0
39.5127036572 32.0154058933 0 -0 0
42.7547676563 32.0154058933 0 -0 0
-35.0547683239 28.7733418941 0 -0 0
-31.8127043247 28.7733418941 0 -0 0
-28.5706403255 28.7733418941 0 -0 0
-25.3285763264 28.7733418941 0 -0 0
-22.0865123272 28.7733418941 0 -0 0
-18.844448328 28.7733418941 0 -0 0
-15.6023843288 28.7733418941 0 -0 0
-12.3603203297 28.7733418941 0 -0 0
-9.1182563305 28.7733418941 0 -0 0
-5.8761923313 28.7733418941 0 -0 0
-2.6341283321 28.7733418941 0 -0 0
0.607935667 28.7733418941 0 -0 0
3.8499996662 28.7733418941 0 -0 0
7.0920636654 28.7733418941 0 -0 0
10.3341276646 28.7733418941 0 -0 0
13.5761916637 28.7733418941 0 -0 0
16.8182556629 28.7733418941 0 -0 0
20.0603196621 28.7733418941 0 -0 0
23.3023836613 28.7733418941 0 -0 0
26.5444476604 28.7733418941 0 -0 0
29.7865116596 28.7733418941 0 -0 0
33.0285756588 28.7733418941 0 -0 0
36.270639658 28.7733418941 0 -0 0
39.5127036572 28.7733418941 0 -0 0
42.7547676563 28.7733418941 0 -0 0
-35.0547683239 25.531277895 0 -0 0
-31.8127043247 25.531277895 0 -0 0
-28.5706403255 25.531277895 0 -0 0
-25.3285763264 25.531277895 0 -0 0
-22.0865123272 25.531277895 0 -0 0
-18.844448328 25.531277895 0 -0 0
-15.6023843288 25.531277895 0 -0 0
-12.3603203297 25.531277895 0 -0 0
-9.1182563305 25.531277895 6.3479052906 -1.0035735394 1
-5.8761923313 25.531277895 7.899385461 -0.5953517857 1
-2.6341283321 25.531277895 8.5133686505 -0.6915959974 1
0.607935667 25.531277895 7.6627363943 -0.6219286465 1
3.8499996662 25.531277895 4.5899242315 -0.2837459139 1
7.0920636654 25.531277895 0.9821839071 -0.7671463236 1
10.3341276646 25.531277895 -1.2062052086 -3.240873279 1
13.5761916637 25.531277895 -1.2134356323 -6.5404063954 1
16.8182556629 25.531277895 0.6037472477 -8.8864260847 1
20.0603196621 25.531277895 0 -0 0
23.3023836613 25.531277895 0 -0 0
26.5444476604 25.531277895 0 -0 0
29.7865116596 25.531277895 0 -0 0
33.0285756588 25.531277895 0 -0 0
36.270639658 25.531277895 0 -0 0
39.5127036572 25.531277895 0 -0 0
42.7547676563 25.531277895 0 -0 0
-35.0547683239 22.2892138958 0 -0 0
-31.8127043247 22.2892138958 0 -0 0
-28.5706403255 22.2892138958 0 -0 0
-25.3285763264 22.2892138958 0 -0 0
-22.0865123272 22.2892138958 0 -0 0
-18.844448328 22.2892138958 0 -0 0
-15.6023843288 22.2892138958 7.5421485133 -4.0411804698 1
-12.3603203297 22.2892138958 6.8874111757 -1.5450245266 1
-9.1182563305 22.2892138958 7.2530481146 1.1998523756 1
-5.8761923313 22.2892138958 9.837227782 1.8368817952 1
-2.6341283321 22.2892138958 12.4065223754 0.4837256943 1
0.607935667 22.2892138958 12.651221182 -1.4690434064 1
3.8499996662 22.2892138958 8.2662537142 -2.052353192 1
7.0920636654 22.2892138958 1.8621320416 -2.1119812022 1
10.3341276646 22.2892138958 -1.9283840276 -4.2763974316 1
13.5761916637 22.2892138958 -0.9352959085 -8.3550460286 1
16.8182556629 22.2892138958 2.1230411402 -11.2031484651 1
20.0603196621 22.2892138958 4.9277134788 -11.5968840083 1
23.3023836613 22.2892138958 0 -0 0
26.5444476604 22.2892138958 0 -0 0
29.7865116596 22.2892138958 0 -0 0
33.0285756588 22.2892138958 0 -0 0
36.270639658 22.2892138958 0 -0 0
39.5127036572 22.2892138958 0 -0 0
42.7547676563 22.2892138958 0 -0 0
-35.0547683239 19.0471498966 0 -0 0
-31.8127043247 19.0471498966 0 -0 0
-28.5706403255 19.0471498966 0 -0 0
-25.3285763264 19.0471498966 0 -0 0
-22.0865123272 19.0471498966 0 -0 0
-18.844448328 19.0471498966 10.9012077349 -3.4355432241 1
-15.6023843288 19.0471498966 9.5432468134 -2.575103933 1
-12.3603203297 19.0471498966 9.2817963351 0.0835535767 1
-9.1182563305 19.0471498966 9.5524686871 3.3767010146 1
-5.8761923313 19.0471498966 11.0411777953 4.0507788637 1
-2.6341283321 19.0471498966 12.657018444 1.4602336817 1
0.607935667 19.0471498966 13.210931129 -2.7259994168 1
3.8499996662 19.0471498966 9.1999456381 -3.9762689497 1
7.0920636654 19.0471498966 3.0161973701 -3.1512542509 1
10.3341276646 19.0471498966 -0.8238961594 -4.8320435584 1
13.5761916637 19.0471498966 1.1335214321 -9.8900734486 1
16.8182556629 19.0471498966 4.3040675821 -13.2346226065 1
20.0603196621 19.0471498966 6.1983854488 -12.5556352011 1
23.3023836613 19.0471498966 6.5207011395 -10.5109167315 1
26.5444476604 19.0471498966 0 -0 0
29.7865116596 19.0471498966 0 -0 0
33.0285756588 19.0471498966 0 -0 0
36.270639658 19.0471498966 0 -0 0
39.5127036572 19.0471498966 0 -0 0
42.7547676563 19.0471498966 0 -0 0
-35.0547683239 15.8050858974 0 -0 0
-31.8127043247 15.8050858974 0 -0 0
-28.5706403255 15.8050858974 0 -0 0
-25.3285763264 15.8050858974 0 -0 0
-22.0865123272 15.8050858974 10.5344572386 2.8043482052 1
-18.844448328 15.8050858974 10.7813288106 -0.0621265887 1
-15.6023843288 15.8050858974 10.6885218923 -0.0208078774 1
-12.3603203297 15.8050858974 11.2097017867 1.5838485186 1
-9.1182563305 15.8050858974 11.5701900322 3.3075934241 1
-5.8761923313 15.8050858974 11.1750039657 3.3436738317 1
-2.6341283321 15.8050858974 10.9119870189 0.5862105301 1
0.607935667 15.8050858974 11.0380146642 -3.8471467139 1
3.8499996662 15.8050858974 8.4625749731 -4.928975893 1
7.0920636654 15.8050858974 4.3396307652 -3.702069326 1
10.3341276646 15.8050858974 2.3646645295 -5.3129436536 1
13.5761916637 15.8050858974 5.3707357132 -10.6492671818 1
16.8182556629 15.8050858974 7.9660479354 -13.7735384994 1
20.0603196621 15.8050858974 8.0549350592 -12.5431360626 1
23.3023836613 15.8050858974 7.0917411105 -10.3672907727 1
26.5444476604 15.8050858974 6.8125389328 -10.1285619383 1
29.7865116596 15.8050858974 0 -0 0
33.0285756588 15.8050858974 0 -0 0
36.270639658 15.8050858974 0 -0 0
39.5127036572 15.8050858974 0 -0 0
42.7547676563 15.8050858974 0 -0 0
-35.0547683239 12.5630218983 0 -0 0
-31.8127043247 12.5630218983 0 -0 0
-28.5706403255 12.5630218983 0 -0 0
-25.3285763264 12.5630218983 0 -0 0
-22.0865123272 12.5630218983 8.8630486257 6.8909613948 1
-18.844448328 12.5630218983 9.1703065321 3.706893735 1
-15.6023843288 12.5630218983 8.9674494642 2.1684358154 1
-12.3603203297 12.5630218983 9.4136284889 1.7788211592 1
-9.1182563305 12.5630218983 10.4013810889 1.4056728408 1
-5.8761923313 12.5630218983 10.1836117722 0.2066466317 1
-2.6341283321 12.5630218983 9.849969077 -2.6012809866 1
0.607935667 12.5630218983 9.4094804272 -5.7897835518 1
3.8499996662 12.5630218983 7.4757215526 -6.2123628891 1
7.0920636654 12.5630218983 4.7803105434 -4.8258857792 1
10.3341276646 12.5630218983 4.1739878922 -6.6142828377 1
13.5761916637 12.5630218983 7.7871722081 -11.120951744 1
16.8182556629 12.5630218983 10.6402922956 -13.6184448317 1
20.0603196621 12.5630218983 10.5513212322 -12.8242585834 1
23.3023836613 12.5630218983 8.622761777 -11.5714122883 1
26.5444476604 12.5630218983 7.3328782242 -11.5890613278 1
29.7865116596 12.5630218983 6.8366881524 -11.6284392301 1
33.0285756588 12.5630218983 0 -0 0
36.270639658 12.5630218983 0 -0 0
39.5127036572 12.5630218983 0 -0 0
42.7547676563 12.5630218983 0 -0 0
-35.0547683239 9.3209578991 0 -0 0
-31.8127043247 9.3209578991 0 -0 0
-28.5706403255 9.3209578991 0 -0 0
-25.3285763264 9.3209578991 3.1999883906 13.1913194747 1
-22.0865123272 9.3209578991 4.9167889612 9.7532320981 1
-18.844448328 9.3209578991 6.017927552 5.6977876462 1
-15.6023843288 9.3209578991 5.8949483003 1.7920389167 1
-12.3603203297 9.3209578991 5.8408767544 -0.4993933233 1
-9.1182563305 9.3209578991 6.9588763194 -2.3174210712 1
-5.8761923313 9.3209578991 8.7612022057 -5.1497809218 1
-2.6341283321 9.3209578991 10.0164253782 -8.5732809379 1
0.607935667 9.3209578991 9.1810121426 -10.6810603329 1
3.8499996662 9.3209578991 6.6846706569 -9.6925498618 1
7.0920636654 9.3209578991 4.3029189996 -7.4216095466 1
10.3341276646 9.3209578991 4.2889648087 -8.4865967737 1
13.5761916637 9.3209578991 7.6075688035 -11.7693114894 1
16.8182556629 9.3209578991 11.21665367 -14.0665345374 1
20.0603196621 9.3209578991 12.1078715914 -14.7059773692 1
23.3023836613 9.3209578991 10.3007297504 -14.6640245164 1
26.5444476604 9.3209578991 8.0403706462 -14.1624538608 1
29.7865116596 9.3209578991 6.8979422645 -12.9213192427 1
33.0285756588 9.3209578991 0 -0 0
36.270639658 9.3209578991 0 -0 0
39.5127036572 9.3209578991 0 -0 0
42.7547676563 9.3209578991 0 -0 0
-35.0547683239 6.0788938999 0 -0 0
-31.8127043247 6.0788938999 0 -0 0
-28.5706403255 6.0788938999 0 -0 0
-25.3285763264 6.0788938999 -2.4777041942 13.8005803112 1
-22.0865123272 6.0788938999 -1.3182566213 9.8961581582 1
-18.844448328 6.0788938999 1.487446392 4.9367336562 1
-15.6023843288 6.0788938999 4.4919761684 -1.0523576502 1
-12.3603203297 6.0788938999 5.5260703297 -5.293119433 1
-9.1182563305 6.0788938999 5.9665487134 -8.8524082343 1
-5.8761923313 6.0788938999 6.6537712503 -12.7292909772 1
-2.6341283321 6.0788938999 8.7799557445 -16.2696813082 1
0.607935667 6.0788938999 8.7296801974 -16.619800909 1
3.8499996662 6.0788938999 7.2922279437 -13.2354342232 1
7.0920636654 6.0788938999 5.4368589215 -9.1370604422 1
10.3341276646 6.0788938999 5.11460845 -8.7120094181 1
13.5761916637 6.0788938999 7.1177496811 -10.6739441938 1
16.8182556629 6.0788938999 10.3761001955 -12.9368740214 1
20.0603196621 6.0788938999 12.3433032331 -15.1058423093 1
23.3023836613 6.0788938999 11.4925502006 -16.4676855847 1
26.5444476604 6.0788938999 9.3592864041 -15.7270008182 1
29.7865116596 6.0788938999 7.862854256 -13.59762783 1
33.0285756588 6.0788938999 7.0691529245 -11.9720043016 1
36.270639658 6.0788938999 0 -0 0
39.5127036572 6.0788938999 0 -0 0
42.7547676563 6.0788938999 0 -0 0
-35.0547683239 2.8368299007 0 -0 0
-31.8127043247 2.8368299007 0 -0 0
-28.5706403255 2.8368299007 -8.7764719523 16.8855413612 1
-25.3285763264 2.8368299007 -8.9416172269 13.5404366324 1
-22.0865123272 2.8368299007 -8.4045872559 7.4013644206 1
-18.844448328 2.8368299007 -4.2719616204 1.2166327317 1
-15.6023843288 2.8368299007 3.2619475342 -5.4852382808 1
-12.3603203297 2.8368299007 6.9907721303 -10.4701209155 1
-9.1182563305 2.8368299007 7.0659179315 -15.2842494246 1
-5.8761923313 2.8368299007 4.5075409111 -18.9274952615 1
-2.6341283321 2.8368299007 6.1187781714 -20.4522887024 1
0.607935667 2.8368299007 8.6261604219 -17.3574131266 1
3.8499996662 2.8368299007 10.128278114 -11.1120589856 1
7.0920636654 2.8368299007 9.5996475301 -6.4289576563 1
10.3341276646 2.8368299007 8.6010135901 -6.0917218664 1
13.5761916637 2.8368299007 9.0333365548 -7.5856485104 1
16.8182556629 2.8368299007 11.2578492555 -9.2367902576 1
20.0603196621 2.8368299007 12.9587598933 -11.6427657139 1
23.3023836613 2.8368299007 12.8486698875 -14.2114334783 1
26.5444476604 2.8368299007 11.1706391105 -14.4602676651 1
29.7865116596 2.8368299007 9.4279712775 -12.9064722132 1
33.0285756588 2.8368299007 7.9052684742 -11.4418978315 1
36.270639658 2.8368299007 0 -0 0
39.5127036572 2.8368299007 0 -0 0
42.7547676563 2.8368299007 0 -0 0
-35.0547683239 -0.4052340984 0 -0 0
-31.8127043247 -0.4052340984 0 -0 0
-28.5706403255 -0.4052340984 -11.8985566151 17.5987652221 1
-25.3285763264 -0.4052340984 -13.0861486874 11.6073939612 1
-22.0865123272 -0.4052340984 -14.1184345256 2.8494810978 1
-18.844448328 -0.4052340984 -10.1879971594 -4.3278493398 1
-15.6023843288 -0.4052340984 -1.2442320015 -9.1964696964 1
-12.3603203297 -0.4052340984 5.1848132931 -12.8711608486 1
-9.1182563305 -0.4052340984 6.1986728964 -16.7812462019 1
-5.8761923313 -0.4052340984 2.6843599785 -18.3182706579 1
-2.6341283321 -0.4052340984 3.756630016 -15.9395006653 1
0.607935667 -0.4052340984 8.0841592986 -9.3647146945 1
3.8499996662 -0.4052340984 12.1910900799 -2.7844720508 1
7.0920636654 -0.4052340984 13.1357817046 -0.6421347844 1
10.3341276646 -0.4052340984 11.9237529652 -2.9704868649 1
13.5761916637 -0.4052340984 11.4816706722 -4.7925793011 1
16.8182556629 -0.4052340984 12.6186635169 -5.190977715 1
20.0603196621 -0.4052340984 13.7644138505 -6.5142202836 1
23.3023836613 -0.4052340984 13.7871282478 -9.8509546115 1
26.5444476604 -0.4052340984 12.1506553851 -11.8704241934 1
29.7865116596 -0.4052340984 9.8980410606 -11.5013185594 1
33.0285756588 -0.4052340984 7.9214041868 -10.1915999161 1
36.270639658 -0.4052340984 0 -0 0
39.5127036572 -0.4052340984 0 -0 0
42.7547676563 -0.4052340984 0 -0 0
-35.0547683239 -3.6472980976 0 -0 0
-31.8127043247 -3.6472980976 0 -0 0
-28.5706403255 -3.6472980976 -13.1297525521 15.6435637246 1
-25.3285763264 -3.6472980976 -15.4276132989 8.0104610013 1
-22.0865123272 -3.6472980976 -17.8985742507 -2.1796438553 1
-18.844448328 -3.6472980976 -15.8023724711 -8.4285685964 1
-15.6023843288 -3.6472980976 -8.4209313076 -10.5259388867 1
-12.3603203297 -3.6472980976 -0.7702649939 -12.195470636 1
-9.1182563305 -3.6472980976 2.5588963585 -14.1457782781 1
-5.8761923313 -3.6472980976 1.5295647083 -12.6511716637 1
-2.6341283321 -3.6472980976 2.1223669065 -5.866829164 1
0.607935667 -3.6472980976 5.2045221723 2.4900464745 1
3.8499996662 -3.6472980976 8.9371623934 6.7078597049 1
7.0920636654 -3.6472980976 10.4389062829 3.7406362155 1
10.3341276646 -3.6472980976 10.001627263 -2.3460853615 1
13.5761916637 -3.6472980976 9.5099614712 -4.7218376074 1
16.8182556629 -3.6472980976 10.479461754 -3.7393692722 1
20.0603196621 -3.6472980976 11.8419209885 -3.8129751756 1
23.3023836613 -3.6472980976 12.1358723669 -7.2214494133 1
26.5444476604 -3.6472980976 10.4308758672 -9.9355904098 1
29.7865116596 -3.6472980976 8.314482707 -9.8828993369 1
33.0285756588 -3.6472980976 6.8794242395 -8.3940603942 1
36.270639658 -3.6472980976 0 -0 0
39.5127036572 -3.6472980976 0 -0 0
42.7547676563 -3.6472980976 0 -0 0
-35.0547683239 -6.8893620968 0 -0 0
-31.8127043247 -6.8893620968 0 -0 0
-28.5706403255 -6.8893620968 -12.6485435716 10.9913128876 1
-25.3285763264 -6.8893620968 -15.927174237 2.5112171997 1
-22.0865123272 -6.8893620968 -19.5375846233 -6.9685517081 1
-18.844448328 -6.8893620968 -19.2090404993 -11.1508016045 1
-15.6023843288 -6.8893620968 -14.9690438343 -10.8792324885 1
-12.3603203297 -6.8893620968 -7.1994995299 -11.226180504 1
-9.1182563305 -6.8893620968 -1.4432241527 -11.2702058779 1
-5.8761923313 -6.8893620968 2.2717365329 -6.9524220343 1
-2.6341283321 -6.8893620968 2.2514868778 2.8080798907 1
0.607935667 -6.8893620968 1.3559753593 10.6739574792 1
3.8499996662 -6.8893620968 1.3049378647 11.3734720232 1
7.0920636654 -6.8893620968 2.0791064994 4.6496251605 1
10.3341276646 -6.8893620968 3.3444833348 -2.80614747 1
13.5761916637 -6.8893620968 4.2456184994 -4.8329412282 1
16.8182556629 -6.8893620968 5.5358978965 -3.4200560801 1
20.0603196621 -6.8893620968 7.3656834807 -3.5582585795 1
23.3023836613 -6.8893620968 8.4343700856 -6.668908143 1
26.5444476604 -6.8893620968 7.7231384296 -8.5932857191 1
29.7865116596 -6.8893620968 6.6398469516 -7.8889956805 1
33.0285756588 -6.8893620968 6.2505070615 -6.5574074701 1
36.270639658 -6.8893620968 0 -0 0
39.5127036572 -6.8893620968 0 -0 0
42.7547676563 -6.8893620968 0 -0 0
-35.0547683239 -10.131426096 0 -0 0
-31.8127043247 -10.131426096 0 -0 0
-28.5706403255 -10.131426096 -12.3407451912 4.0496037104 1
-25.3285763264 -10.131426096 -15.8979669063 -4.7405123397 1
-22.0865123272 -10.131426096 -18.731803851 -11.9291866905 1
-18.844448328 -10.131426096 -19.2399229971 -13.207283685 1
-15.6023843288 -10.131426096 -16.3774669023 -11.7442504088 1
-12.3603203297 -10.131426096 -10.0560768388 -11.5121534006 1
-9.1182563305 -10.131426096 -2.8564912558 -10.5450952144 1
-5.8761923313 -10.131426096 2.912634719 -4.8592843492 1
-2.6341283321 -10.131426096 3.4938703227 4.7676984791 1
0.607935667 -10.131426096 0.0519584987 11.0171058725 1
3.8499996662 -10.131426096 -3.0419284571 10.6356810567 1
7.0920636654 -10.131426096 -4.1822263451 4.8153519729 1
10.3341276646 -10.131426096 -2.5751416756 -0.5047976472 1
13.5761916637 -10.131426096 -0.6846309041 -1.6683125127 1
16.8182556629 -10.131426096 1.1847048395 -1.2101054525 1
20.0603196621 -10.131426096 3.4890842602 -2.6182539808 1
23.3023836613 -10.131426096 5.5429554592 -5.2833884872 1
26.5444476604 -10.131426096 6.1726027298 -6.381082538 1
29.7865116596 -10.131426096 6.5644094757 -6.3370148924 1
33.0285756588 -10.131426096 6.7228106021 -6.3421219179 1
36.270639658 -10.131426096 0 -0 0
39.5127036572 -10.131426096 0 -0 0
42.7547676563 -10.131426096 0 -0 0
-35.0547683239 -13.3734900951 0 -0 0
-31.8127043247 -13.3734900951 0 -0 0
-28.5706403255 -13.3734900951 0 -0 0
-25.3285763264 -13.3734900951 -14.8273913601 -7.5890845959 1
-22.0865123272 -13.3734900951 -15.2332576741 -13.017972886 1
-18.844448328 -13.3734900951 -15.9840224299 -14.2029996698 1
-15.6023843288 -13.3734900951 -16.1213100489 -13.783454233 1
-12.3603203297 -13.3734900951 -12.5520082891 -13.047718879 1
-9.1182563305 -13.3734900951 -5.2240933666 -10.641318894 1
-5.8761923313 -13.3734900951 2.0442433659 -4.9466490878 1
-2.6341283321 -13.3734900951 3.9732543735 2.3947758707 1
0.607935667 -13.3734900951 1.1131279778 6.5258401707 1
3.8499996662 -13.3734900951 -2.5385651794 6.6035041575 1
7.0920636654 -13.3734900951 -4.6666691108 4.5099497942 1
10.3341276646 -13.3734900951 -3.905089442 3.2106933972 1
13.5761916637 -13.3734900951 -1.9697615324 3.3723210623 1
16.8182556629 -13.3734900951 -0.0700158942 2.3531021621 1
20.0603196621 -13.3734900951 2.0659036881 -0.2544117681 1
23.3023836613 -13.3734900951 4.1343001988 -2.3241458951 1
26.5444476604 -13.3734900951 5.2056858519 -3.0596810624 1
29.7865116596 -13.3734900951 6.0939163717 -4.6962888926 1
33.0285756588 -13.3734900951 6.6988208072 -6.9737299916 1
36.270639658 -13.3734900951 0 -0 0
39.5127036572 -13.3734900951 0 -0 0
42.7547676563 -13.3734900951 0 -0 0
-35.0547683239 -16.6155540943 0 -0 0
-31.8127043247 -16.6155540943 0 -0 0
-28.5706403255 -16.6155540943 0 -0 0
-25.3285763264 -16.6155540943 -13.3398066793 -3.9814399866 1
-22.0865123272 -16.6155540943 -11.6190718209 -8.3115991731 1
-18.844448328 -16.6155540943 -12.4430547882 -11.7339047116 1
-15.6023843288 -16.6155540943 -15.1801354298 -13.9483911685 1
-12.3603203297 -16.6155540943 -14.4279612147 -14.6865323862 1
-9.1182563305 -16.6155540943 -8.0144762092 -13.2588261754 1
-5.8761923313 -16.6155540943 -0.338856419 -9.0413585161 1
-2.6341283321 -16.6155540943 3.542071235 -3.62280143 1
0.607935667 -16.6155540943 3.2598928276 -0.3238050133 1
3.8499996662 -16.6155540943 2.0574182477 1.1048056609 1
7.0920636654 -16.6155540943 0.6662149351 2.8026691128 1
10.3341276646 -16.6155540943 0.5851155043 5.052279429 1
13.5761916637 -16.6155540943 1.2294425672 6.3839491633 1
16.8182556629 -16.6155540943 1.9753462281 5.0827814815 1
20.0603196621 -16.6155540943 3.1853527195 2.752417721 1
23.3023836613 -16.6155540943 3.8510354086 1.5077733439 1
26.5444476604 -16.6155540943 3.084497571 0.7588916415 1
29.7865116596 -16.6155540943 3.2007812869 -2.3373859961 1
33.0285756588 -16.6155540943 0 -0 0
36.270639658 -16.6155540943 0 -0 0
39.5127036572 -16.6155540943 0 -0 0
42.7547676563 -16.6155540943 0 -0 0
-35.0547683239 -19.8576180935 0 -0 0
-31.8127043247 -19.8576180935 0 -0 0
-28.5706403255 -19.8576180935 0 -0 0
-25.3285763264 -19.8576180935 0 -0 0
-22.0865123272 -19.8576180935 -10.4890393139 -1.272781026 1
-18.844448328 -19.8576180935 -11.0919267854 -7.0704609317 1
-15.6023843288 -19.8576180935 -14.4517541443 -12.2383812448 1
-12.3603203297 -19.8576180935 -15.2043764394 -14.8160879069 1
-9.1182563305 -19.8576180935 -10.3702944791 -15.2817203691 1
-5.8761923313 -19.8576180935 -2.7476207886 -13.7115404054 1
-2.6341283321 -19.8576180935 2.7324298485 -10.9481317399 1
0.607935667 -19.8576180935 6.3651038346 -7.8445801991 1
3.8499996662 -19.8576180935 8.9173762174 -4.4908275858 1
7.0920636654 -19.8576180935 8.9083795914 0.4719894468 1
10.3341276646 -19.8576180935 7.8254081705 4.9874596988 1
13.5761916637 -19.8576180935 7.0408930838 7.3662547525 1
16.8182556629 -19.8576180935 7.0192433295 6.6385926898 1
20.0603196621 -19.8576180935 6.7593949488 5.0411915615 1
23.3023836613 -19.8576180935 4.8721391738 4.331353362 1
26.5444476604 -19.8576180935 1.9843802948 3.5933126905 1
29.7865116596 -19.8576180935 -0.3399167594 1.0421430708 1
33.0285756588 -19.8576180935 0 -0 0
36.270639658 -19.8576180935 0 -0 0
39.5127036572 -19.8576180935 0 -0 0
42.7547676563 -19.8576180935 0 -0 0
-35.0547683239 -23.0996820927 0 -0 0
-31.8127043247 -23.0996820927 0 -0 0
-28.5706403255 -23.0996820927 0 -0 0
-25.3285763264 -23.0996820927 0 -0 0
-22.0865123272 -23.0996820927 -11.475273152 2.9156927747 1
-18.844448328 -23.0996820927 -11.0431464488 -4.8751157055 1
-15.6023843288 -23.0996820927 -13.1948135329 -11.1410042317 1
-12.3603203297 -23.0996820927 -13.6547984956 -14.3742532054 1
-9.1182563305 -23.0996820927 -10.7860873965 -14.7974786959 1
-5.8761923313 -23.0996820927 -4.9115714254 -14.4422635432 1
-2.6341283321 -23.0996820927 1.1348076241 -13.5427458751 1
0.607935667 -23.0996820927 7.9243396546 -9.9807788595 1
3.8499996662 -23.0996820927 12.6773257697 -4.7785520406 1
7.0920636654 -23.0996820927 13.2286804129 1.9509204308 1
10.3341276646 -23.0996820927 11.5255426603 6.832803383 1
13.5761916637 -23.0996820927 11.15776315 8.4416873173 1
16.8182556629 -23.0996820927 11.0952831586 6.9310156443 1
20.0603196621 -23.0996820927 9.4911892121 4.7884375801 1
23.3023836613 -23.0996820927 5.8860181013 4.2648222318 1
26.5444476604 -23.0996820927 2.1164268266 4.341409498 1
29.7865116596 -23.0996820927 0 -0 0
33.0285756588 -23.0996820927 0 -0 0
36.270639658 -23.0996820927 0 -0 0
39.5127036572 -23.0996820927 0 -0 0
42.7547676563 -23.0996820927 0 -0 0
-35.0547683239 -26.3417460918 0 -0 0
-31.8127043247 -26.3417460918 0 -0 0
-28.5706403255 -26.3417460918 0 -0 0
-25.3285763264 -26.3417460918 0 -0 0
-22.0865123272 -26.3417460918 0 -0 0
-18.844448328 -26.3417460918 -11.4003193852 -7.978215543 1
-15.6023843288 -26.3417460918 -10.7049257283 -13.7568146062 1
-12.3603203297 -26.3417460918 -9.6614203763 -14.3430107942 1
-9.1182563305 -26.3417460918 -7.7414535505 -11.5490300258 1
-5.8761923313 -26.3417460918 -5.2082903926 -10.3149849761 1
-2.6341283321 -26.3417460918 -0.5352698076 -10.6738282486 1
0.607935667 -26.3417460918 5.9872316535 -7.6671773386 1
3.8499996662 -26.3417460918 10.1907774296 -1.7380771261 1
7.0920636654 -26.3417460918 10.1283795661 4.9898731111 1
10.3341276646 -26.3417460918 8.7135704516 8.4405840258 1
13.5761916637 -26.3417460918 9.0450705754 8.0645023532 1
16.8182556629 -26.3417460918 9.2788977041 5.4728883011 1
20.0603196621 -26.3417460918 7.8376246924 3.1281264968 1
23.3023836613 -26.3417460918 5.4737911039 2.7160118213 1
26.5444476604 -26.3417460918 0 -0 0
29.7865116596 -26.3417460918 0 -0 0
33.0285756588 -26.3417460918 0 -0 0
36.270639658 -26.3417460918 0 -0 0
39.5127036572 -26.3417460918 0 -0 0
42.7547676563 -26.3417460918 0 -0 0
-35.0547683239 -29.583810091 0 -0 0
-31.8127043247 -29.583810091 0 -0 0
-28.5706403255 -29.583810091 0 -0 0
-25.3285763264 -29.583810091 0 -0 0
-22.0865123272 -29.583810091 0 -0 0
-18.844448328 -29.583810091 0 -0 0
-15.6023843288 -29.583810091 -6.576032986 -16.9108077615 1
-12.3603203297 -29.583810091 -3.3297211505 -13.8469837704 1
-9.1182563305 -29.583810091 -1.924703823 -8.3835709733 1
-5.8761923313 -29.583810091 -2.2320424986 -5.4821252719 1
-2.6341283321 -29.583810091 -0.0353847691 -5.1754839284 1
0.607935667 -29.583810091 3.0259304295 -2.5041359347 1
3.8499996662 -29.583810091 3.6399398878 2.3007873073 1
7.0920636654 -29.583810091 1.8053554087 6.17959145 1
10.3341276646 -29.583810091 1.1442592748 6.9736641686 1
13.5761916637 -29.583810091 2.4890029673 5.0243840307 1
16.8182556629 -29.583810091 3.2102253891 2.7982212239 1
20.0603196621 -29.583810091 2.7160483562 0.974394893 1
23.3023836613 -29.583810091 0 -0 0
26.5444476604 -29.583810091 0 -0 0
29.7865116596 -29.583810091 0 -0 0
33.0285756588 -29.583810091 0 -0 0
36.270639658 -29.583810091 0 -0 0
39.5127036572 -29.583810091 0 -0 0
42.7547676563 -29.583810091 0 -0 0
-35.0547683239 -32.8258740902 0 -0 0
-31.8127043247 -32.8258740902 0 -0 0
-28.5706403255 -32.8258740902 0 -0 0
-25.3285763264 -32.8258740902 0 -0 0
-22.0865123272 -32.8258740902 0 -0 0
-18.844448328 -32.8258740902 0 -0 0
-15.6023843288 -32.8258740902 0 -0 0
-12.3603203297 -32.8258740902 0 -0 0
-9.1182563305 -32.8258740902 3.658141177 -7.2028649613 1
-5.8761923313 -32.8258740902 2.4295565744 -4.657508531 1
-2.6341283321 -32.8258740902 2.7949481864 -4.1873484676 1
0.607935667 -32.8258740902 2.1345926377 -1.5311921689 1
3.8499996662 -32.8258740902 -0.5144340101 2.081992147 1
7.0920636654 -32.8258740902 -3.7357088447 4.4020715043 1
10.3341276646 -32.8258740902 -4.0862285171 3.2131832005 1
13.5761916637 -32.8258740902 -2.888986721 1.1661508081 1
16.8182556629 -32.8258740902 0 -0 0
20.0603196621 -32.8258740902 0 -0 0
23.3023836613 -32.8258740902 0 -0 0
26.5444476604 -32.8258740902 0 -0 0
29.7865116596 -32.8258740902 0 -0 0
33.0285756588 -32.8258740902 0 -0 0
36.270639658 -32.8258740902 0 -0 0
39.5127036572 -32.8258740902 0 -0 0
42.7547676563 -32.8258740902 0 -0 0
-35.0547683239 -36.0679380894 0 -0 0
-31.8127043247 -36.0679380894 0 -0 0
-28.5706403255 -36.0679380894 0 -0 0
-25.3285763264 -36.0679380894 0 -0 0
-22.0865123272 -36.0679380894 0 -0 0
-18.844448328 -36.0679380894 0 -0 0
-15.6023843288 -36.0679380894 0 -0 0
-12.3603203297 -36.0679380894 0 -0 0
-9.1182563305 -36.0679380894 0 -0 0
-5.8761923313 -36.0679380894 0 -0 0
-2.6341283321 -36.0679380894 0 -0 0
0.607935667 -36.0679380894 0 -0 0
3.8499996662 -36.0679380894 0 -0 0
7.0920636654 -36.0679380894 0 -0 0
10.3341276646 -36.0679380894 0 -0 0
13.5761916637 -36.0679380894 0 -0 0
16.8182556629 -36.0679380894 0 -0 0
20.0603196621 -36.0679380894 0 -0 0
23.3023836613 -36.0679380894 0 -0 0
26.5444476604 -36.0679380894 0 -0 0
29.7865116596 -36.0679380894 0 -0 0
33.0285756588 -36.0679380894 0 -0 0
36.270639658 -36.0679380894 0 -0 0
39.5127036572 -36.0679380894 0 -0 0
42.7547676563 -36.0679380894 0 -0 0
-35.0547683239 -39.3100020885 0 -0 0
-31.8127043247 -39.3100020885 0 -0 0
-28.5706403255 -39.3100020885 0 -0 0
-25.3285763264 -39.3100020885 0 -0 0
-22.0865123272 -39.3100020885 0 -0 0
-18.844448328 -39.3100020885 0 -0 0
-15.6023843288 -39.3100020885 0 -0 0
-12.3603203297 -39.3100020885 0 -0 0
-9.1182563305 -39.3100020885 0 -0 0
-5.8761923313 -39.3100020885 0 -0 0
-2.6341283321 -39.3100020885 0 -0 0
0.607935667 -39.3100020885 0 -0 0
3.8499996662 -39.3100020885 0 -0 0
7.0920636654 -39.3100020885 0 -0 0
10.3341276646 -39.3100020885 0 -0 0
13.5761916637 -39.3100020885 0 -0 0
16.8182556629 -39.3100020885 0 -0 0
20.0603196621 -39.3100020885 0 -0 0
23.3023836613 -39.3100020885 0 -0 0
26.5444476604 -39.3100020885 0 -0 0
29.7865116596 -39.3100020885 0 -0 0
33.0285756588 -39.3100020885 0 -0 0
36.270639658 -39.3100020885 0 -0 0
39.5127036572 -39.3100020885 0 -0 0
42.7547676563 -39.3100020885 0 -0 0
-35.0547683239 -42.5520660877 0 -0 0
-31.8127043247 -42.5520660877 0 -0 0
-28.5706403255 -42.5520660877 0 -0 0
-25.3285763264 -42.5520660877 0 -0 0
-22.0865123272 -42.5520660877 0 -0 0
-18.844448328 -42.5520660877 0 -0 0
-15.6023843288 -42.5520660877 0 -0 0
-12.3603203297 -42.5520660877 0 -0 0
-9.1182563305 -42.5520660877 0 -0 0
-5.8761923313 -42.5520660877 0 -0 0
-2.6341283321 -42.5520660877 0 -0 0
0.607935667 -42.5520660877 0 -0 0
3.8499996662 -42.5520660877 0 -0 0
7.0920636654 -42.5520660877 0 -0 0
10.3341276646 -42.5520660877 0 -0 0
13.5761916637 -42.5520660877 0 -0 0
16.8182556629 -42.5520660877 0 -0 0
20.0603196621 -42.5520660877 0 -0 0
23.3023836613 -42.5520660877 0 -0 0
26.5444476604 -42.5520660877 0 -0 0
29.7865116596 -42.5520660877 0 -0 0
33.0285756588 -42.5520660877 0 -0 0
36.270639658 -42.5520660877 0 -0 0
39.5127036572 -42.5520660877 0 -0 0
42.7547676563 -42.5520660877 0 -0 0
