TITLE = "B00070"
VARIABLES = "x", "y", "Vx", "Vy", "isValid"
ZONE T="Frame 0", I=25, J=25, F=POINT
-35.0547683239 35.2574698925 0 -0 0
-31.8127043247 35.2574698925 0 -0 0
-28.5706403255 35.2574698925 0 -0 0
-25.3285763264 35.2574698925 0 -0 0
-22.0865123272 35.2574698925 0 -0 0
-18.844448328 35.2574698925 0 -0 0
-15.6023843288 35.2574698925 0 -0 0
-12.3603203297 35.2574698925 0 -0 0
-9.1182563305 35.2574698925 0 -0 0
-5.8761923313 35.2574698925 0 -0 0
-2.6341283321 35.2574698925 0 -0 0
0.607935667 35.2574698925 0 -0 0
3.8499996662 35.2574698925 0 -0 0
7.0920636654 35.2574698925 0 -0 0
10.3341276646 35.2574698925 0 -0 0
13.5761916637 35.2574698925 0 -0 0
16.8182556629 35.2574698925 0 -0 0
20.0603196621 35.2574698925 0 -0 0
23.3023836613 35.2574698925 0 -0 0
26.5444476604 35.2574698925 0 -0 0
29.7865116596 35.2574698925 0 -0 0
33.0285756588 35.2574698925 0 -0 0
36.270639658 35.2574698925 0 -0 0
39.5127036572 35.2574698925 0 -0 0
42.7547676563 35.2574698925 0 -0 0
-35.0547683239 32.0154058933 0 -0 0
-31.8127043247 32.0154058933 0 -0 0
-28.5706403255 32.0154058933 0 -0 0
-25.3285763264 32.0154058933 0 -0 0
-22.0865123272 32.0154058933 0 -0 0
-18.844448328 32.0154058933 0 -0 0
-15.6023843288 32.0154058933 0 -0 0
-12.3603203297 32.0154058933 0 -0 0
-9.1182563305 32.0154058933 0 -0 0
-5.8761923313 32.0154058933 0 -0 0
-2.6341283321 32.0154058933 0 -0 0
0.607935667 32.0154058933 0 -0 0
3.8499996662 32.0154058933 0 -0 0
7.0920636654 32.0154058933 0 -0 0
10.3341276646 32.0154058933 0 -0 0
13.5761916637 32.0154058933 0 -0 0
16.8182556629 32.0154058933 0 -0 0
20.0603196621 32.0154058933 0 -0 0
23.3023836613 32.0154058933 0 -0 0
26.5444476604 32.0154058933 0 -0 0
29.7865116596 32.0154058933 0 -0 0
33.0285756588 32.0154058933 0 -0 0
36.270639658 32.0154058933 0 -0 0
39.5127036572 32.0154058933 0 -0 0
42.7547676563 32.0154058933 0 -0 0
-35.0547683239 28.7733418941 0 -0 0
-31.8127043247 28.7733418941 0 -0 0
-28.5706403255 28.7733418941 0 -0 0
-25.3285763264 28.7733418941 0 -0 0
-22.0865123272 28.7733418941 0 -0 0
-18.844448328 28.7733418941 0 -0 0
-15.6023843288 28.7733418941 0 -0 0
-12.3603203297 28.7733418941 0 -0 0
-9.1182563305 28.7733418941 0 -0 0
-5.8761923313 28.7733418941 0 -0 0
-2.6341283321 28.7733418941 0 -0 0
0.607935667 28.7733418941 0 -0 0
3.8499996662 28.7733418941 0 -0 0
7.0920636654 28.7733418941 0 -0 0
10.3341276646 28.7733418941 0 -0 0
13.5761916637 28.7733418941 0 -0 0
16.8182556629 28.7733418941 0 -0 0
20.0603196621 28.7733418941 0 -0 0
23.3023836613 28.7733418941 0 -0 0
26.5444476604 28.7733418941 0 -0 0
29.7865116596 28.7733418941 0 -0 0
33.0285756588 28.7733418941 0 -0 0
36.270639658 28.7733418941 0 -0 0
39.5127036572 28.7733418941 0 -0 0
42.7547676563 28.7733418941 0 -0 0
-35.0547683239 25.531277895 0 -0 0
-31.8127043247 25.531277895 0 -0 0
-28.5706403255 25.531277895 0 -0 0
-25.3285763264 25.531277895 0 -0 0
-22.0865123272 25.531277895 0 -0 0
-18.844448328 25.531277895 0 -0 0
-15.6023843288 25.531277895 0 -0 0
-12.3603203297 25.531277895 0 -0 0
-9.1182563305 25.531277895 9.3298043073 8.5994972438 1
-5.8761923313 25.531277895 9.4022616282 5.0460485801 1
-2.6341283321 25.531277895 6.3083268997 2.3168703313 1
0.607935667 25.531277895 4.7225441488 1.4607575489 1
3.8499996662 25.531277895 4.7858052608 0.8889435528 1
7.0920636654 25.531277895 6.8893188372 -1.774237548 1
10.3341276646 25.531277895 8.907703848 -4.5033366883 1
13.5761916637 25.531277895 9.1589759043 -5.3359231548 1
16.8182556629 25.531277895 8.2928842827 -4.3056847766 1
20.0603196621 25.531277895 0 -0 0
23.3023836613 25.531277895 0 -0 0
26.5444476604 25.531277895 0 -0 0
29.7865116596 25.531277895 0 -0 0
33.0285756588 25.531277895 0 -0 0
36.270639658 25.531277895 0 -0 0
39.5127036572 25.531277895 0 -0 0
42.7547676563 25.531277895 0 -0 0
-35.0547683239 22.2892138958 0 -0 0
-31.8127043247 22.2892138958 0 -0 0
-28.5706403255 22.2892138958 0 -0 0
-25.3285763264 22.2892138958 0 -0 0
-22.0865123272 22.2892138958 0 -0 0
-18.844448328 22.2892138958 0 -0 0
-15.6023843288 22.2892138958 0.6995181673 10.358231343 1
-12.3603203297 22.2892138958 4.4688049348 11.3281676283 1
-9.1182563305 22.2892138958 7.4748743069 9.3040064913 1
-5.8761923313 22.2892138958 8.5589315067 5.830313056 1
-2.6341283321 22.2892138958 7.3398772103 2.7689311615 1
0.607935667 22.2892138958 7.3137569217 1.7249624815 1
3.8499996662 22.2892138958 7.5297007047 0.9322491001 1
7.0920636654 22.2892138958 8.2897410797 -1.3324319837 1
10.3341276646 22.2892138958 8.446110749 -4.6642988761 1
13.5761916637 22.2892138958 8.0255387136 -6.3949017614 1
16.8182556629 22.2892138958 7.7637150366 -6.244228506 1
20.0603196621 22.2892138958 7.6116190365 -4.8262055344 1
23.3023836613 22.2892138958 0 -0 0
26.5444476604 22.2892138958 0 -0 0
29.7865116596 22.2892138958 0 -0 0
33.0285756588 22.2892138958 0 -0 0
36.270639658 22.2892138958 0 -0 0
39.5127036572 22.2892138958 0 -0 0
42.7547676563 22.2892138958 0 -0 0
-35.0547683239 19.0471498966 0 -0 0
-31.8127043247 19.0471498966 0 -0 0
-28.5706403255 19.0471498966 0 -0 0
-25.3285763264 19.0471498966 0 -0 0
-22.0865123272 19.0471498966 0 -0 0
-18.844448328 19.0471498966 0.0518009517 6.0414263912 1
-15.6023843288 19.0471498966 1.2702415535 7.2521718826 1
-12.3603203297 19.0471498966 4.4380081881 8.9430949249 1
-9.1182563305 19.0471498966 7.1824447097 8.8284142123 1
-5.8761923313 19.0471498966 8.5314222906 6.4221036018 1
-2.6341283321 19.0471498966 7.7935256449 3.5580179328 1
0.607935667 19.0471498966 8.4726362421 2.2692909639 1
3.8499996662 19.0471498966 8.5212106551 1.599307884 1
7.0920636654 19.0471498966 8.1453632885 0.3017238613 1
10.3341276646 19.0471498966 7.0525473921 -2.8173084072 1
13.5761916637 19.0471498966 6.8237469727 -6.2850092249 1
16.8182556629 19.0471498966 7.2736827441 -7.5815753299 1
20.0603196621 19.0471498966 7.0642469915 -6.3760286541 1
23.3023836613 19.0471498966 6.0467834237 -4.2631829956 1
26.5444476604 19.0471498966 0 -0 0
29.7865116596 19.0471498966 0 -0 0
33.0285756588 19.0471498966 0 -0 0
36.270639658 19.0471498966 0 -0 0
39.5127036572 19.0471498966 0 -0 0
42.7547676563 19.0471498966 0 -0 0
-35.0547683239 15.8050858974 0 -0 0
-31.8127043247 15.8050858974 0 -0 0
-28.5706403255 15.8050858974 0 -0 0
-25.3285763264 15.8050858974 0 -0 0
-22.0865123272 15.8050858974 -5.1762170405 8.9036934712 1
-18.844448328 15.8050858974 -1.6850036453 4.1827444754 1
-15.6023843288 15.8050858974 0.9068405612 3.463995703 1
-12.3603203297 15.8050858974 3.8448193548 6.0287104593 1
-9.1182563305 15.8050858974 6.797433442 9.0366838697 1
-5.8761923313 15.8050858974 8.5748721656 8.8213675195 1
-2.6341283321 15.8050858974 8.9273927991 6.8261063376 1
0.607935667 15.8050858974 8.780008886 4.4016484853 1
3.8499996662 15.8050858974 8.5716685744 2.136735511 1
7.0920636654 15.8050858974 7.984985658 0.5616301392 1
10.3341276646 15.8050858974 6.5220314903 -1.750212728 1
13.5761916637 15.8050858974 5.7776413072 -4.8815736139 1
16.8182556629 15.8050858974 5.5679929884 -6.9019411675 1
20.0603196621 15.8050858974 5.0878728061 -6.67664628 1
23.3023836613 15.8050858974 4.4618518436 -5.1811996664 1
26.5444476604 15.8050858974 4.0464586957 -4.5753275108 1
29.7865116596 15.8050858974 0 -0 0
33.0285756588 15.8050858974 0 -0 0
36.270639658 15.8050858974 0 -0 0
39.5127036572 15.8050858974 0 -0 0
42.7547676563 15.8050858974 0 -0 0
-35.0547683239 12.5630218983 0 -0 0
-31.8127043247 12.5630218983 0 -0 0
-28.5706403255 12.5630218983 0 -0 0
-25.3285763264 12.5630218983 0 -0 0
-22.0865123272 12.5630218983 -6.9704478959 11.0697401806 1
-18.844448328 12.5630218983 -3.4168434308 3.6899835444 1
-15.6023843288 12.5630218983 0.344579064 1.5696757227 1
-12.3603203297 12.5630218983 4.1994463268 4.8186820772 1
-9.1182563305 12.5630218983 7.3737416749 9.5459093267 1
-5.8761923313 12.5630218983 9.2559320921 10.6738524038 1
-2.6341283321 12.5630218983 9.3367181461 8.9008304692 1
0.607935667 12.5630218983 8.3058296896 5.9350158352 1
3.8499996662 12.5630218983 7.9608750868 2.6787601857 1
7.0920636654 12.5630218983 7.3702935117 0.7121399692 1
10.3341276646 12.5630218983 5.7966889363 -0.6556037565 1
13.5761916637 12.5630218983 4.1707930574 -2.8799638262 1
16.8182556629 12.5630218983 2.9094567928 -5.0533078391 1
20.0603196621 12.5630218983 2.2624115463 -6.3024378477 1
23.3023836613 12.5630218983 2.6011949334 -6.7204482179 1
26.5444476604 12.5630218983 3.7110946364 -7.557738317 1
29.7865116596 12.5630218983 5.3705134849 -9.9775299773 1
33.0285756588 12.5630218983 0 -0 0
36.270639658 12.5630218983 0 -0 0
39.5127036572 12.5630218983 0 -0 0
42.7547676563 12.5630218983 0 -0 0
-35.0547683239 9.3209578991 0 -0 0
-31.8127043247 9.3209578991 0 -0 0
-28.5706403255 9.3209578991 0 -0 0
-25.3285763264 9.3209578991 -4.3812723171 18.8998519838 1
-22.0865123272 9.3209578991 -5.0227327169 12.1383591508 1
-18.844448328 9.3209578991 -2.5532558037 5.1259626293 1
-15.6023843288 9.3209578991 1.4659128849 3.0662063035 1
-12.3603203297 9.3209578991 5.0135494915 6.6759487969 1
-9.1182563305 9.3209578991 7.1387569055 10.502319875 1
-5.8761923313 9.3209578991 8.1172230164 10.6546719209 1
-2.6341283321 9.3209578991 8.214964854 7.8366313074 1
0.607935667 9.3209578991 7.0414402004 4.4984370961 1
3.8499996662 9.3209578991 6.9217116426 1.7278503936 1
7.0920636654 9.3209578991 6.3384237478 0.3902008363 1
10.3341276646 9.3209578991 4.9040627633 -0.5888880273 1
13.5761916637 9.3209578991 2.6710519408 -2.2576235212 1
16.8182556629 9.3209578991 1.1398833988 -4.5986457895 1
20.0603196621 9.3209578991 0.9176743456 -7.1459394716 1
23.3023836613 9.3209578991 1.990915047 -8.980216726 1
26.5444476604 9.3209578991 3.529259286 -10.3970971538 1
29.7865116596 9.3209578991 5.1126452314 -12.3878938401 1
33.0285756588 9.3209578991 0 -0 0
36.270639658 9.3209578991 0 -0 0
39.5127036572 9.3209578991 0 -0 0
42.7547676563 9.3209578991 0 -0 0
-35.0547683239 6.0788938999 0 -0 0
-31.8127043247 6.0788938999 0 -0 0
-28.5706403255 6.0788938999 0 -0 0
-25.3285763264 6.0788938999 0.9808591421 16.5976130964 1
-22.0865123272 6.0788938999 0.3748788917 11.6411835445 1
-18.844448328 6.0788938999 1.1223671376 6.2778012958 1
-15.6023843288 6.0788938999 3.5837598897 5.1341736055 1
-12.3603203297 6.0788938999 6.034728742 8.0323190947 1
-9.1182563305 6.0788938999 7.21624939 10.5240741007 1
-5.8761923313 6.0788938999 7.1641338161 9.6158822793 1
-2.6341283321 6.0788938999 6.4265614547 6.3333668445 1
0.607935667 6.0788938999 5.1662234062 3.0278562075 1
3.8499996662 6.0788938999 4.8306029992 1.1290060595 1
7.0920636654 6.0788938999 4.6185454953 0.2362513164 1
10.3341276646 6.0788938999 3.9420222282 -1.1594567066 1
13.5761916637 6.0788938999 2.5490325587 -3.2399587006 1
16.8182556629 6.0788938999 1.4154681001 -5.8678919954 1
20.0603196621 6.0788938999 1.2641745829 -8.5422486774 1
23.3023836613 6.0788938999 2.1075151969 -10.454320961 1
26.5444476604 6.0788938999 3.1504770555 -11.5407882517 1
29.7865116596 6.0788938999 3.9901672815 -12.4678598231 1
33.0285756588 6.0788938999 4.3830187423 -13.083572529 1
36.270639658 6.0788938999 0 -0 0
39.5127036572 6.0788938999 0 -0 0
42.7547676563 6.0788938999 0 -0 0
-35.0547683239 2.8368299007 0 -0 0
-31.8127043247 2.8368299007 0 -0 0
-28.5706403255 2.8368299007 2.8541388355 14.4208970094 1
-25.3285763264 2.8368299007 3.2688526168 13.8084343935 1
-22.0865123272 2.8368299007 3.1445529783 11.4424872198 1
-18.844448328 2.8368299007 3.0763279607 8.7468038601 1
-15.6023843288 2.8368299007 3.3286054796 7.8442003576 1
-12.3603203297 2.8368299007 4.9147104013 9.0791759887 1
-9.1182563305 2.8368299007 6.2142808166 10.2724499816 1
-5.8761923313 2.8368299007 6.3922887663 9.3956612039 1
-2.6341283321 2.8368299007 5.0540509152 6.8411532519 1
0.607935667 2.8368299007 3.4984329491 3.3006388233 1
3.8499996662 2.8368299007 2.8035236051 1.0690773917 1
7.0920636654 2.8368299007 2.8003052189 -0.5415243966 1
10.3341276646 2.8368299007 2.7575727551 -2.7523917541 1
13.5761916637 2.8368299007 2.2450090414 -4.916219803 1
16.8182556629 2.8368299007 1.6769225036 -7.0295153532 1
20.0603196621 2.8368299007 1.468989661 -8.6478530517 1
23.3023836613 2.8368299007 1.9845616102 -9.7307731427 1
26.5444476604 2.8368299007 2.4580455881 -10.3849035794 1
29.7865116596 2.8368299007 2.6696693542 -10.7837431287 1
33.0285756588 2.8368299007 2.7775370762 -11.3288536376 1
36.270639658 2.8368299007 0 -0 0
39.5127036572 2.8368299007 0 -0 0
42.7547676563 2.8368299007 0 -0 0
-35.0547683239 -0.4052340984 0 -0 0
-31.8127043247 -0.4052340984 0 -0 0
-28.5706403255 -0.4052340984 0.7383800528 10.9222674969 1
-25.3285763264 -0.4052340984 2.1637486385 10.6196951067 1
-22.0865123272 -0.4052340984 3.5732432941 10.6462163727 1
-18.844448328 -0.4052340984 3.8189635661 10.3048204434 1
-15.6023843288 -0.4052340984 2.4701232173 9.5233597891 1
-12.3603203297 -0.4052340984 2.3211098811 9.1887979863 1
-9.1182563305 -0.4052340984 2.8983520166 9.6509943629 1
-5.8761923313 -0.4052340984 3.4925970386 9.9470647615 1
-2.6341283321 -0.4052340984 2.5310695008 9.1252744877 1
0.607935667 -0.4052340984 1.0926142755 5.4642781592 1
3.8499996662 -0.4052340984 0.3065141321 1.849633658 1
7.0920636654 -0.4052340984 0.3122512702 -1.1911247788 1
10.3341276646 -0.4052340984 0.4124623225 -3.8265084611 1
13.5761916637 -0.4052340984 0.4044942953 -5.4103847583 1
16.8182556629 -0.4052340984 0.399611725 -6.4029575401 1
20.0603196621 -0.4052340984 0.5622163193 -6.8766711439 1
23.3023836613 -0.4052340984 1.2483480576 -7.5449022127 1
26.5444476604 -0.4052340984 1.8630060091 -8.808608712 1
29.7865116596 -0.4052340984 2.0543778555 -10.1514804474 1
33.0285756588 -0.4052340984 2.0220627999 -11.2189303031 1
36.270639658 -0.4052340984 0 -0 0
39.5127036572 -0.4052340984 0 -0 0
42.7547676563 -0.4052340984 0 -0 0
-35.0547683239 -3.6472980976 0 -0 0
-31.8127043247 -3.6472980976 0 -0 0
-28.5706403255 -3.6472980976 -0.0751267789 10.3343103906 1
-25.3285763264 -3.6472980976 1.2522150125 9.9184305142 1
-22.0865123272 -3.6472980976 2.9523438503 10.3899580672 1
-18.844448328 -3.6472980976 3.8258429837 11.3991116222 1
-15.6023843288 -3.6472980976 2.5336181825 11.0150381824 1
-12.3603203297 -3.6472980976 0.8492495186 9.9193278821 1
-9.1182563305 -3.6472980976 -0.9699571191 9.9357812364 1
-5.8761923313 -3.6472980976 -1.8348978936 10.6884228557 1
-2.6341283321 -3.6472980976 -2.7493128645 10.162934871 1
0.607935667 -3.6472980976 -3.5556455845 6.0998941942 1
3.8499996662 -3.6472980976 -3.6972038531 1.6410738355 1
7.0920636654 -3.6472980976 -3.3613168324 -1.8284543274 1
10.3341276646 -3.6472980976 -2.8819650893 -4.1486152088 1
13.5761916637 -3.6472980976 -2.2962461187 -5.2415533912 1
16.8182556629 -3.6472980976 -1.5267347688 -5.4990919254 1
20.0603196621 -3.6472980976 -0.6247365821 -5.043940128 1
23.3023836613 -3.6472980976 0.2564773069 -5.1059512054 1
26.5444476604 -3.6472980976 1.1674848577 -7.4321672062 1
29.7865116596 -3.6472980976 1.7917017998 -10.6534049776 1
33.0285756588 -3.6472980976 2.0016485871 -12.7070488152 1
36.270639658 -3.6472980976 0 -0 0
39.5127036572 -3.6472980976 0 -0 0
42.7547676563 -3.6472980976 0 -0 0
-35.0547683239 -6.8893620968 0 -0 0
-31.8127043247 -6.8893620968 0 -0 0
-28.5706403255 -6.8893620968 0.409652462 10.9336917264 1
-25.3285763264 -6.8893620968 0.9281373467 9.9172324134 1
-22.0865123272 -6.8893620968 1.7071069145 9.9725038719 1
-18.844448328 -6.8893620968 2.7857734154 11.0764746666 1
-15.6023843288 -6.8893620968 2.6340934896 11.4773335956 1
-12.3603203297 -6.8893620968 0.6645508642 11.3520354391 1
-9.1182563305 -6.8893620968 -3.2701796463 11.3665225554 1
-5.8761923313 -6.8893620968 -6.4996111833 11.2756299412 1
-2.6341283321 -6.8893620968 -8.1512831385 9.2971530406 1
0.607935667 -6.8893620968 -8.5809568752 4.7531473515 1
3.8499996662 -6.8893620968 -8.0571464731 0.4888122633 1
7.0920636654 -6.8893620968 -7.3193373902 -2.2652114427 1
10.3341276646 -6.8893620968 -6.0954604966 -3.9553731415 1
13.5761916637 -6.8893620968 -4.7792585819 -5.1047899414 1
16.8182556629 -6.8893620968 -3.2368776974 -5.2982379323 1
20.0603196621 -6.8893620968 -1.9672342885 -4.3809909083 1
23.3023836613 -6.8893620968 -1.2233832961 -4.0218010079 1
26.5444476604 -6.8893620968 -0.1974805037 -6.4547917052 1
29.7865116596 -6.8893620968 0.9176636267 -10.3581637083 1
33.0285756588 -6.8893620968 1.7320793755 -12.7246495442 1
36.270639658 -6.8893620968 0 -0 0
39.5127036572 -6.8893620968 0 -0 0
42.7547676563 -6.8893620968 0 -0 0
-35.0547683239 -10.131426096 0 -0 0
-31.8127043247 -10.131426096 0 -0 0
-28.5706403255 -10.131426096 0.3180661013 12.197427212 1
-25.3285763264 -10.131426096 -0.3253659714 11.0779517607 1
-22.0865123272 -10.131426096 -0.2084673909 10.2789900178 1
-18.844448328 -10.131426096 1.1741344984 10.4658333572 1
-15.6023843288 -10.131426096 1.8472330783 11.289976957 1
-12.3603203297 -10.131426096 0.3672865921 12.8325124352 1
-9.1182563305 -10.131426096 -3.5842689618 13.3893152969 1
-5.8761923313 -10.131426096 -7.311620389 12.0144607916 1
-2.6341283321 -10.131426096 -9.6827585278 8.0575927415 1
0.607935667 -10.131426096 -10.6301362172 3.1947636082 1
3.8499996662 -10.131426096 -10.247786255 -0.19049803 1
7.0920636654 -10.131426096 -9.5004201441 -2.236152063 1
10.3341276646 -10.131426096 -8.1802096643 -3.787527309 1
13.5761916637 -10.131426096 -6.7371552024 -5.3700786902 1
16.8182556629 -10.131426096 -5.1791555277 -5.6576875017 1
20.0603196621 -10.131426096 -4.1200238372 -4.302972745 1
23.3023836613 -10.131426096 -3.4112807767 -3.3791467345 1
26.5444476604 -10.131426096 -2.1513424977 -5.2353938003 1
29.7865116596 -10.131426096 -0.5369703378 -8.7352111477 1
33.0285756588 -10.131426096 0.7225743614 -10.762554136 1
36.270639658 -10.131426096 0 -0 0
39.5127036572 -10.131426096 0 -0 0
42.7547676563 -10.131426096 0 -0 0
-35.0547683239 -13.3734900951 0 -0 0
-31.8127043247 -13.3734900951 0 -0 0
-28.5706403255 -13.3734900951 0 -0 0
-25.3285763264 -13.3734900951 -3.0784798922 11.1648358097 1
-22.0865123272 -13.3734900951 -2.5956938753 10.65276124 1
-18.844448328 -13.3734900951 -0.4594480366 10.8703107438 1
-15.6023843288 -13.3734900951 0.3039440126 12.4640143059 1
-12.3603203297 -13.3734900951 -1.3749538439 14.1391742305 1
-9.1182563305 -13.3734900951 -4.501224009 13.6282059716 1
-5.8761923313 -13.3734900951 -7.0712598669 10.4537388193 1
-2.6341283321 -13.3734900951 -9.0303974637 5.7438221338 1
0.607935667 -13.3734900951 -10.3516212566 1.9161904532 1
3.8499996662 -13.3734900951 -10.5144941253 0.1358792353 1
7.0920636654 -13.3734900951 -9.9239270433 -1.0871541303 1
10.3341276646 -13.3734900951 -9.1487298475 -3.1261412365 1
13.5761916637 -13.3734900951 -8.4093621466 -5.4686901172 1
16.8182556629 -13.3734900951 -7.8315043538 -5.8780221069 1
20.0603196621 -13.3734900951 -7.0100963371 -3.972996818 1
23.3023836613 -13.3734900951 -5.6783861426 -2.5847394656 1
26.5444476604 -13.3734900951 -3.7603103715 -3.8200176412 1
29.7865116596 -13.3734900951 -1.8939655019 -6.4078018771 1
33.0285756588 -13.3734900951 -0.6170341496 -7.9534648574 1
36.270639658 -13.3734900951 0 -0 0
39.5127036572 -13.3734900951 0 -0 0
42.7547676563 -13.3734900951 0 -0 0
-35.0547683239 -16.6155540943 0 -0 0
-31.8127043247 -16.6155540943 0 -0 0
-28.5706403255 -16.6155540943 0 -0 0
-25.3285763264 -16.6155540943 -5.396656721 10.261321654 1
-22.0865123272 -16.6155540943 -3.0620987018 10.3586468135 1
-18.844448328 -16.6155540943 -0.1465247219 11.2601572904 1
-15.6023843288 -16.6155540943 -0.5667381837 12.7411560401 1
-12.3603203297 -16.6155540943 -3.6915977196 13.2011941444 1
-9.1182563305 -16.6155540943 -6.6445747395 11.3183183217 1
-5.8761923313 -16.6155540943 -7.9818955966 7.481134746 1
-2.6341283321 -16.6155540943 -8.8315296367 3.5174521957 1
0.607935667 -16.6155540943 -9.968718139 1.3011074446 1
3.8499996662 -16.6155540943 -10.2541837752 0.7280394886 1
7.0920636654 -16.6155540943 -9.7452252338 -0.0385882942 1
10.3341276646 -16.6155540943 -9.2824298067 -2.0593485548 1
13.5761916637 -16.6155540943 -9.3779493606 -4.4127490343 1
16.8182556629 -16.6155540943 -9.9048800182 -4.889876682 1
20.0603196621 -16.6155540943 -9.2105159791 -3.3705045869 1
23.3023836613 -16.6155540943 -7.4267153643 -2.0169705694 1
26.5444476604 -16.6155540943 -4.8764463583 -2.7904885218 1
29.7865116596 -16.6155540943 -3.0808634124 -4.6175198026 1
33.0285756588 -16.6155540943 0 -0 0
36.270639658 -16.6155540943 0 -0 0
39.5127036572 -16.6155540943 0 -0 0
42.7547676563 -16.6155540943 0 -0 0
-35.0547683239 -19.8576180935 0 -0 0
-31.8127043247 -19.8576180935 0 -0 0
-28.5706403255 -19.8576180935 0 -0 0
-25.3285763264 -19.8576180935 0 -0 0
-22.0865123272 -19.8576180935 -2.4099983636 10.7811633471 1
-18.844448328 -19.8576180935 -0.181621784 11.6528167169 1
-15.6023843288 -19.8576180935 -1.4192041637 12.0649960077 1
-12.3603203297 -19.8576180935 -5.0249100115 10.9478346302 1
-9.1182563305 -19.8576180935 -8.0284669348 8.6226518706 1
-5.8761923313 -19.8576180935 -9.1882997841 5.4812405856 1
-2.6341283321 -19.8576180935 -9.6169167282 3.0836645165 1
0.607935667 -19.8576180935 -10.0232576931 1.9390682004 1
3.8499996662 -19.8576180935 -9.9186020166 1.1243339041 1
7.0920636654 -19.8576180935 -9.3446773038 -0.1553494493 1
10.3341276646 -19.8576180935 -8.6952082281 -1.7676217247 1
13.5761916637 -19.8576180935 -8.8310809528 -3.0456344777 1
16.8182556629 -19.8576180935 -9.54446605 -3.7861981659 1
20.0603196621 -19.8576180935 -9.1434114635 -3.4700607864 1
23.3023836613 -19.8576180935 -8.1074431561 -2.82782923 1
26.5444476604 -19.8576180935 -6.1266727137 -2.9174721114 1
29.7865116596 -19.8576180935 -4.5983218071 -3.8074620398 1
33.0285756588 -19.8576180935 0 -0 0
36.270639658 -19.8576180935 0 -0 0
39.5127036572 -19.8576180935 0 -0 0
42.7547676563 -19.8576180935 0 -0 0
-35.0547683239 -23.0996820927 0 -0 0
-31.8127043247 -23.0996820927 0 -0 0
-28.5706403255 -23.0996820927 0 -0 0
-25.3285763264 -23.0996820927 0 -0 0
-22.0865123272 -23.0996820927 -2.2518449795 11.273644379 1
-18.844448328 -23.0996820927 -1.90455094 10.9260743656 1
-15.6023843288 -23.0996820927 -3.6145735451 10.0883651727 1
-12.3603203297 -23.0996820927 -6.7243408378 8.6717444139 1
-9.1182563305 -23.0996820927 -9.0485899966 6.955969234 1
-5.8761923313 -23.0996820927 -9.8924116776 5.138424931 1
-2.6341283321 -23.0996820927 -9.892297544 3.9606121151 1
0.607935667 -23.0996820927 -9.9247942171 2.8138578285 1
3.8499996662 -23.0996820927 -9.8190503462 0.9858201038 1
7.0920636654 -23.0996820927 -9.3318593159 -0.7519907861 1
10.3341276646 -23.0996820927 -8.1333460475 -1.3894963662 1
13.5761916637 -23.0996820927 -7.4378569773 -1.5738234825 1
16.8182556629 -23.0996820927 -7.4462201316 -2.8223906736 1
20.0603196621 -23.0996820927 -7.6116244714 -4.0269798953 1
23.3023836613 -23.0996820927 -8.0335534284 -4.0571688354 1
26.5444476604 -23.0996820927 -7.432091721 -3.3245860445 1
29.7865116596 -23.0996820927 0 -0 0
33.0285756588 -23.0996820927 0 -0 0
36.270639658 -23.0996820927 0 -0 0
39.5127036572 -23.0996820927 0 -0 0
42.7547676563 -23.0996820927 0 -0 0
-35.0547683239 -26.3417460918 0 -0 0
-31.8127043247 -26.3417460918 0 -0 0
-28.5706403255 -26.3417460918 0 -0 0
-25.3285763264 -26.3417460918 0 -0 0
-22.0865123272 -26.3417460918 0 -0 0
-18.844448328 -26.3417460918 -4.2892646359 8.7453080457 1
-15.6023843288 -26.3417460918 -6.2088923823 7.4986303997 1
-12.3603203297 -26.3417460918 -8.5216013664 6.8170197333 1
-9.1182563305 -26.3417460918 -9.7448302953 6.2103531716 1
-5.8761923313 -26.3417460918 -9.7116288926 5.0216656584 1
-2.6341283321 -26.3417460918 -9.2858350943 3.7566128054 1
0.607935667 -26.3417460918 -9.1338012939 2.3025458101 1
3.8499996662 -26.3417460918 -9.3451435003 0.4296930609 1
7.0920636654 -26.3417460918 -8.9573622283 -0.8866869233 1
10.3341276646 -26.3417460918 -7.544365966 -0.932425207 1
13.5761916637 -26.3417460918 -6.0129521726 -0.6498837913 1
16.8182556629 -26.3417460918 -5.4268900464 -2.1588896573 1
20.0603196621 -26.3417460918 -6.1221436028 -3.9870856744 1
23.3023836613 -26.3417460918 -7.4790284075 -4.5226400612 1
26.5444476604 -26.3417460918 0 -0 0
29.7865116596 -26.3417460918 0 -0 0
33.0285756588 -26.3417460918 0 -0 0
36.270639658 -26.3417460918 0 -0 0
39.5127036572 -26.3417460918 0 -0 0
42.7547676563 -26.3417460918 0 -0 0
-35.0547683239 -29.583810091 0 -0 0
-31.8127043247 -29.583810091 0 -0 0
-28.5706403255 -29.583810091 0 -0 0
-25.3285763264 -29.583810091 0 -0 0
-22.0865123272 -29.583810091 0 -0 0
-18.844448328 -29.583810091 0 -0 0
-15.6023843288 -29.583810091 -8.081961774 6.5177119262 1
-12.3603203297 -29.583810091 -9.9480134592 6.5960401827 1
-9.1182563305 -29.583810091 -10.5158383654 5.6879407551 1
-5.8761923313 -29.583810091 -9.9146598784 3.4161417205 1
-2.6341283321 -29.583810091 -8.7871334795 1.415070897 1
0.607935667 -29.583810091 -8.5731456685 0.2940843645 1
3.8499996662 -29.583810091 -9.5207359242 -0.2385186837 1
7.0920636654 -29.583810091 -9.5976160729 -0.5545639335 1
10.3341276646 -29.583810091 -8.1453487954 -0.6758748494 1
13.5761916637 -29.583810091 -5.8392511055 -0.9553157867 1
16.8182556629 -29.583810091 -4.7712749671 -2.1264027973 1
20.0603196621 -29.583810091 -5.4684866091 -3.345002069 1
23.3023836613 -29.583810091 0 -0 0
26.5444476604 -29.583810091 0 -0 0
29.7865116596 -29.583810091 0 -0 0
33.0285756588 -29.583810091 0 -0 0
36.270639658 -29.583810091 0 -0 0
39.5127036572 -29.583810091 0 -0 0
42.7547676563 -29.583810091 0 -0 0
-35.0547683239 -32.8258740902 0 -0 0
-31.8127043247 -32.8258740902 0 -0 0
-28.5706403255 -32.8258740902 0 -0 0
-25.3285763264 -32.8258740902 0 -0 0
-22.0865123272 -32.8258740902 0 -0 0
-18.844448328 -32.8258740902 0 -0 0
-15.6023843288 -32.8258740902 0 -0 0
-12.3603203297 -32.8258740902 0 -0 0
-9.1182563305 -32.8258740902 -10.1861589442 4.7077617345 1
-5.8761923313 -32.8258740902 -9.3739782361 1.7323130776 1
-2.6341283321 -32.8258740902 -8.6672889765 -0.6221229832 1
0.607935667 -32.8258740902 -9.2657336921 -0.9672559574 1
3.8499996662 -32.8258740902 -11.6053540496 -0.043026422 1
7.0920636654 -32.8258740902 -12.0683970681 0.3752379747 1
10.3341276646 -32.8258740902 -10.3137047474 -0.2213260464 1
13.5761916637 -32.8258740902 -6.8698158816 -1.2699766005 1
16.8182556629 -32.8258740902 -5.0506063754 -2.0315327179 1
20.0603196621 -32.8258740902 0 -0 0
23.3023836613 -32.8258740902 0 -0 0
26.5444476604 -32.8258740902 0 -0 0
29.7865116596 -32.8258740902 0 -0 0
33.0285756588 -32.8258740902 0 -0 0
36.270639658 -32.8258740902 0 -0 0
39.5127036572 -32.8258740902 0 -0 0
42.7547676563 -32.8258740902 0 -0 0
-35.0547683239 -36.0679380894 0 -0 0
-31.8127043247 -36.0679380894 0 -0 0
-28.5706403255 -36.0679380894 0 -0 0
-25.3285763264 -36.0679380894 0 -0 0
-22.0865123272 -36.0679380894 0 -0 0
-18.844448328 -36.0679380894 0 -0 0
-15.6023843288 -36.0679380894 0 -0 0
-12.3603203297 -36.0679380894 0 -0 0
-9.1182563305 -36.0679380894 0 -0 0
-5.8761923313 -36.0679380894 0 -0 0
-2.6341283321 -36.0679380894 0 -0 0
0.607935667 -36.0679380894 0 -0 0
3.8499996662 -36.0679380894 0 -0 0
7.0920636654 -36.0679380894 0 -0 0
10.3341276646 -36.0679380894 0 -0 0
13.5761916637 -36.0679380894 0 -0 0
16.8182556629 -36.0679380894 0 -0 0
20.0603196621 -36.0679380894 0 -0 0
23.3023836613 -36.0679380894 0 -0 0
26.5444476604 -36.0679380894 0 -0 0
29.7865116596 -36.0679380894 0 -0 0
33.0285756588 -36.0679380894 0 -0 0
36.270639658 -36.0679380894 0 -0 0
39.5127036572 -36.0679380894 0 -0 0
42.7547676563 -36.0679380894 0 -0 0
-35.0547683239 -39.3100020885 0 -0 0
-31.8127043247 -39.3100020885 0 -0 0
-28.5706403255 -39.3100020885 0 -0 0
-25.3285763264 -39.3100020885 0 -0 0
-22.0865123272 -39.3100020885 0 -0 0
-18.844448328 -39.3100020885 0 -0 0
-15.6023843288 -39.3100020885 0 -0 0
-12.3603203297 -39.3100020885 0 -0 0
-9.1182563305 -39.3100020885 0 -0 0
-5.8761923313 -39.3100020885 0 -0 0
-2.6341283321 -39.3100020885 0 -0 0
0.607935667 -39.3100020885 0 -0 0
3.8499996662 -39.3100020885 0 -0 0
7.0920636654 -39.3100020885 0 -0 0
10.3341276646 -39.3100020885 0 -0 0
13.5761916637 -39.3100020885 0 -0 0
16.8182556629 -39.3100020885 0 -0 0
20.0603196621 -39.3100020885 0 -0 0
23.3023836613 -39.3100020885 0 -0 0
26.5444476604 -39.3100020885 0 -0 0
29.7865116596 -39.3100020885 0 -0 0
33.0285756588 -39.3100020885 0 -0 0
36.270639658 -39.3100020885 0 -0 0
39.5127036572 -39.3100020885 0 -0 0
42.7547676563 -39.3100020885 0 -0 0
-35.0547683239 -42.5520660877 0 -0 0
-31.8127043247 -42.5520660877 0 -0 0
-28.5706403255 -42.5520660877 0 -0 0
-25.3285763264 -42.5520660877 0 -0 0
-22.0865123272 -42.5520660877 0 -0 0
-18.844448328 -42.5520660877 0 -0 0
-15.6023843288 -42.5520660877 0 -0 0
-12.3603203297 -42.5520660877 0 -0 0
-9.1182563305 -42.5520660877 0 -0 0
-5.8761923313 -42.5520660877 0 -0 0
-2.6341283321 -42.5520660877 0 -0 0
0.607935667 -42.5520660877 0 -0 0
3.8499996662 -42.5520660877 0 -0 0
7.0920636654 -42.5520660877 0 -0 0
10.3341276646 -42.5520660877 0 -0 0
13.5761916637 -42.5520660877 0 -0 0
16.8182556629 -42.5520660877 0 -0 0
20.0603196621 -42.5520660877 0 -0 0
23.3023836613 -42.5520660877 0 -0 0
26.5444476604 -42.5520660877 0 -0 0
29.7865116596 -42.5520660877 0 -0 0
33.0285756588 -42.5520660877 0 -0 0
36.270639658 -42.5520660877 0 -0 0
39.5127036572 -42.5520660877 0 -0 0
42.7547676563 -42.5520660877 0 -0 0
