TITLE = "B00070"
VARIABLES = "x", "y", "Vx", "Vy", "isValid"
ZONE T="Frame 0", I=25, J=25, F=POINT
-35.0547683239 35.2574698925 0 -0 0
-31.8127043247 35.2574698925 0 -0 0
-28.5706403255 35.2574698925 0 -0 0
-25.3285763264 35.2574698925 0 -0 0
-22.0865123272 35.2574698925 0 -0 0
-18.844448328 35.2574698925 0 -0 0
-15.6023843288 35.2574698925 0 -0 0
-12.3603203297 35.2574698925 0 -0 0
-9.1182563305 35.2574698925 0 -0 0
-5.8761923313 35.2574698925 0 -0 0
-2.6341283321 35.2574698925 0 -0 0
0.607935667 35.2574698925 0 -0 0
3.8499996662 35.2574698925 0 -0 0
7.0920636654 35.2574698925 0 -0 0
10.3341276646 35.2574698925 0 -0 0
13.5761916637 35.2574698925 0 -0 0
16.8182556629 35.2574698925 0 -0 0
20.0603196621 35.2574698925 0 -0 0
23.3023836613 35.2574698925 0 -0 0
26.5444476604 35.2574698925 0 -0 0
29.7865116596 35.2574698925 0 -0 0
33.0285756588 35.2574698925 0 -0 0
36.270639658 35.2574698925 0 -0 0
39.5127036572 35.2574698925 0 -0 0
42.7547676563 35.2574698925 0 -0 0
-35.0547683239 32.0154058933 0 -0 0
-31.8127043247 32.0154058933 0 -0 0
-28.5706403255 32.0154058933 0 -0 0
-25.3285763264 32.0154058933 0 -0 0
-22.0865123272 32.0154058933 0 -0 0
-18.844448328 32.0154058933 0 -0 0
-15.6023843288 32.0154058933 0 -0 0
-12.3603203297 32.0154058933 0 -0 0
-9.1182563305 32.0154058933 0 -0 0
-5.8761923313 32.0154058933 0 -0 0
-2.6341283321 32.0154058933 0 -0 0
0.607935667 32.0154058933 0 -0 0
3.8499996662 32.0154058933 0 -0 0
7.0920636654 32.0154058933 0 -0 0
10.3341276646 32.0154058933 0 -0 0
13.5761916637 32.0154058933 0 -0 0
16.8182556629 32.0154058933 0 -0 0
20.0603196621 32.0154058933 0 -0 0
23.3023836613 32.0154058933 0 -0 0
26.5444476604 32.0154058933 0 -0 0
29.7865116596 32.0154058933 0 -0 0
33.0285756588 32.0154058933 0 -0 0
36.270639658 32.0154058933 0 -0 0
39.5127036572 32.0154058933 0 -0 0
42.7547676563 32.0154058933 0 -0 0
-35.0547683239 28.7733418941 0 -0 0
-31.8127043247 28.7733418941 0 -0 0
-28.5706403255 28.7733418941 0 -0 0
-25.3285763264 28.7733418941 0 -0 0
-22.0865123272 28.7733418941 0 -0 0
-18.844448328 28.7733418941 0 -0 0
-15.6023843288 28.7733418941 0 -0 0
-12.3603203297 28.7733418941 0 -0 0
-9.1182563305 28.7733418941 0 -0 0
-5.8761923313 28.7733418941 0 -0 0
-2.6341283321 28.7733418941 0 -0 0
0.607935667 28.7733418941 0 -0 0
3.8499996662 28.7733418941 0 -0 0
7.0920636654 28.7733418941 0 -0 0
10.3341276646 28.7733418941 0 -0 0
13.5761916637 28.7733418941 0 -0 0
16.8182556629 28.7733418941 0 -0 0
20.0603196621 28.7733418941 0 -0 0
23.3023836613 28.7733418941 0 -0 0
26.5444476604 28.7733418941 0 -0 0
29.7865116596 28.7733418941 0 -0 0
33.0285756588 28.7733418941 0 -0 0
36.270639658 28.7733418941 0 -0 0
39.5127036572 28.7733418941 0 -0 0
42.7547676563 28.7733418941 0 -0 0
-35.0547683239 25.531277895 0 -0 0
-31.8127043247 25.531277895 0 -0 0
-28.5706403255 25.531277895 0 -0 0
-25.3285763264 25.531277895 0 -0 0
-22.0865123272 25.531277895 0 -0 0
-18.844448328 25.531277895 0 -0 0
-15.6023843288 25.531277895 0 -0 0
-12.3603203297 25.531277895 0 -0 0
-9.1182563305 25.531277895 5.7177386819 -1.2745801398 1
-5.8761923313 25.531277895 5.3864342157 -3.8605540901 1
-2.6341283321 25.531277895 3.9803001604 -6.2915595271 1
0.607935667 25.531277895 4.5970778113 -7.5196750647 1
3.8499996662 25.531277895 6.7248046187 -7.2304200724 1
7.0920636654 25.531277895 8.9230231129 -6.2716755222 1
10.3341276646 25.531277895 9.6619940637 -6.5075467896 1
13.5761916637 25.531277895 9.472157284 -8.9740480769 1
16.8182556629 25.531277895 8.5205669175 -10.810711267 1
20.0603196621 25.531277895 0 -0 0
23.3023836613 25.531277895 0 -0 0
26.5444476604 25.531277895 0 -0 0
29.7865116596 25.531277895 0 -0 0
33.0285756588 25.531277895 0 -0 0
36.270639658 25.531277895 0 -0 0
39.5127036572 25.531277895 0 -0 0
42.7547676563 25.531277895 0 -0 0
-35.0547683239 22.2892138958 0 -0 0
-31.8127043247 22.2892138958 0 -0 0
-28.5706403255 22.2892138958 0 -0 0
-25.3285763264 22.2892138958 0 -0 0
-22.0865123272 22.2892138958 0 -0 0
-18.844448328 22.2892138958 0 -0 0
-15.6023843288 22.2892138958 -3.1855788731 7.7896106814 1
-12.3603203297 22.2892138958 2.009341282 5.4794524926 1
-9.1182563305 22.2892138958 7.466070923 1.9385619967 1
-5.8761923313 22.2892138958 8.0184274055 -1.2051412449 1
-2.6341283321 22.2892138958 5.1124658786 -3.4362606353 1
0.607935667 22.2892138958 4.6869208795 -5.653075659 1
3.8499996662 22.2892138958 6.8682892692 -6.7237973444 1
7.0920636654 22.2892138958 9.682314071 -6.7266361912 1
10.3341276646 22.2892138958 10.8898221538 -7.1686967444 1
13.5761916637 22.2892138958 10.6750915686 -9.1147216592 1
16.8182556629 22.2892138958 9.9380186172 -9.8124595839 1
20.0603196621 22.2892138958 8.2120716579 -7.4039774157 1
23.3023836613 22.2892138958 0 -0 0
26.5444476604 22.2892138958 0 -0 0
29.7865116596 22.2892138958 0 -0 0
33.0285756588 22.2892138958 0 -0 0
36.270639658 22.2892138958 0 -0 0
39.5127036572 22.2892138958 0 -0 0
42.7547676563 22.2892138958 0 -0 0
-35.0547683239 19.0471498966 0 -0 0
-31.8127043247 19.0471498966 0 -0 0
-28.5706403255 19.0471498966 0 -0 0
-25.3285763264 19.0471498966 0 -0 0
-22.0865123272 19.0471498966 0 -0 0
-18.844448328 19.0471498966 -0.3783879714 2.0848427694 1
-15.6023843288 19.0471498966 -0.7141904487 5.4734046197 1
-12.3603203297 19.0471498966 3.4736744131 6.0954925023 1
-9.1182563305 19.0471498966 9.2303468424 4.0889505127 1
-5.8761923313 19.0471498966 10.6495171887 1.9090835232 1
-2.6341283321 19.0471498966 8.0443840424 0.0544727922 1
0.607935667 19.0471498966 6.7536792108 -2.3703823811 1
3.8499996662 19.0471498966 7.2165797132 -4.5007816659 1
7.0920636654 19.0471498966 8.6826644024 -5.0559338176 1
10.3341276646 19.0471498966 9.7996959454 -5.7089570377 1
13.5761916637 19.0471498966 10.9935158471 -7.3839617647 1
16.8182556629 19.0471498966 10.9717302196 -7.9699568601 1
20.0603196621 19.0471498966 9.0263538735 -5.9810309986 1
23.3023836613 19.0471498966 7.2971676941 -2.1062185124 1
26.5444476604 19.0471498966 0 -0 0
29.7865116596 19.0471498966 0 -0 0
33.0285756588 19.0471498966 0 -0 0
36.270639658 19.0471498966 0 -0 0
39.5127036572 19.0471498966 0 -0 0
42.7547676563 19.0471498966 0 -0 0
-35.0547683239 15.8050858974 0 -0 0
-31.8127043247 15.8050858974 0 -0 0
-28.5706403255 15.8050858974 0 -0 0
-25.3285763264 15.8050858974 0 -0 0
-22.0865123272 15.8050858974 1.0439931372 -2.8430687825 1
-18.844448328 15.8050858974 1.335578961 -0.2949818644 1
-15.6023843288 15.8050858974 1.5341659831 3.5653396935 1
-12.3603203297 15.8050858974 4.9554953473 5.6354628523 1
-9.1182563305 15.8050858974 8.9497207123 5.1440525023 1
-5.8761923313 15.8050858974 10.9090895957 3.8700051369 1
-2.6341283321 15.8050858974 9.5855861503 3.0238476423 1
0.607935667 15.8050858974 8.9641969586 1.1479437821 1
3.8499996662 15.8050858974 7.9614831955 -1.1924474302 1
7.0920636654 15.8050858974 7.063755432 -2.2698943925 1
10.3341276646 15.8050858974 7.2343283932 -3.255336542 1
13.5761916637 15.8050858974 8.4027943318 -4.3057768686 1
16.8182556629 15.8050858974 8.9943511755 -5.1830119147 1
20.0603196621 15.8050858974 7.8270724678 -4.3720374599 1
23.3023836613 15.8050858974 6.9699774722 -3.0668717809 1
26.5444476604 15.8050858974 6.0210937025 -2.0623903057 1
29.7865116596 15.8050858974 0 -0 0
33.0285756588 15.8050858974 0 -0 0
36.270639658 15.8050858974 0 -0 0
39.5127036572 15.8050858974 0 -0 0
42.7547676563 15.8050858974 0 -0 0
-35.0547683239 12.5630218983 0 -0 0
-31.8127043247 12.5630218983 0 -0 0
-28.5706403255 12.5630218983 0 -0 0
-25.3285763264 12.5630218983 0 -0 0
-22.0865123272 12.5630218983 0.7181103187 1.0900813702 1
-18.844448328 12.5630218983 3.4847278593 2.0443615757 1
-15.6023843288 12.5630218983 4.6531143875 4.2408517611 1
-12.3603203297 12.5630218983 6.44487416 6.4538170405 1
-9.1182563305 12.5630218983 7.7338265276 7.4984130024 1
-5.8761923313 12.5630218983 8.6481235906 7.3772049351 1
-2.6341283321 12.5630218983 8.5054807509 6.1924354048 1
0.607935667 12.5630218983 9.0754633255 4.7459608601 1
3.8499996662 12.5630218983 8.1527777451 2.6015149906 1
7.0920636654 12.5630218983 6.4405884133 1.0671535764 1
10.3341276646 12.5630218983 5.5390906178 -0.5327490554 1
13.5761916637 12.5630218983 5.7065668749 -2.0537229461 1
16.8182556629 12.5630218983 5.6646273075 -3.1141861952 1
20.0603196621 12.5630218983 6.0227217669 -3.4588225524 1
23.3023836613 12.5630218983 6.6880264261 -3.3680869475 1
26.5444476604 12.5630218983 6.8364381455 -3.6767171746 1
29.7865116596 12.5630218983 5.6003266134 -4.3549642213 1
33.0285756588 12.5630218983 0 -0 0
36.270639658 12.5630218983 0 -0 0
39.5127036572 12.5630218983 0 -0 0
42.7547676563 12.5630218983 0 -0 0
-35.0547683239 9.3209578991 0 -0 0
-31.8127043247 9.3209578991 0 -0 0
-28.5706403255 9.3209578991 0 -0 0
-25.3285763264 9.3209578991 -2.2497369803 5.3443750797 1
-22.0865123272 9.3209578991 1.3752071721 5.932164307 1
-18.844448328 9.3209578991 5.0734569479 6.5163157523 1
-15.6023843288 9.3209578991 6.9767451718 7.0640434834 1
-12.3603203297 9.3209578991 7.213758379 8.8152864332 1
-9.1182563305 9.3209578991 6.1396120818 10.7380921058 1
-5.8761923313 9.3209578991 5.3837970653 10.9849165751 1
-2.6341283321 9.3209578991 5.0664011969 8.9930630963 1
0.607935667 9.3209578991 6.4547361481 6.596736458 1
3.8499996662 9.3209578991 7.3431279042 4.3523053312 1
7.0920636654 9.3209578991 6.7842030031 2.591079919 1
10.3341276646 9.3209578991 5.4733816722 0.9064555868 1
13.5761916637 9.3209578991 3.8341801712 -0.573965437 1
16.8182556629 9.3209578991 3.3320385457 -1.4372013409 1
20.0603196621 9.3209578991 4.9191099796 -2.1674782104 1
23.3023836613 9.3209578991 6.8360818554 -3.0764481331 1
26.5444476604 9.3209578991 7.1709317097 -4.4154073205 1
29.7865116596 9.3209578991 5.6370474373 -5.6412933278 1
33.0285756588 9.3209578991 0 -0 0
36.270639658 9.3209578991 0 -0 0
39.5127036572 9.3209578991 0 -0 0
42.7547676563 9.3209578991 0 -0 0
-35.0547683239 6.0788938999 0 -0 0
-31.8127043247 6.0788938999 0 -0 0
-28.5706403255 6.0788938999 0 -0 0
-25.3285763264 6.0788938999 -0.2170409036 5.0478707924 1
-22.0865123272 6.0788938999 2.0097775864 6.8022669092 1
-18.844448328 6.0788938999 5.8949567547 7.7823387408 1
-15.6023843288 6.0788938999 8.6648154781 8.1695873894 1
-12.3603203297 6.0788938999 7.6534209189 9.9257199674 1
-9.1182563305 6.0788938999 5.0592726782 12.1071904131 1
-5.8761923313 6.0788938999 2.7957211547 12.7037721544 1
-2.6341283321 6.0788938999 2.3370050979 10.1845574506 1
0.607935667 6.0788938999 3.2422582812 6.7422374687 1
3.8499996662 6.0788938999 4.7690575144 4.2627246496 1
7.0920636654 6.0788938999 5.3173948638 2.9244203715 1
10.3341276646 6.0788938999 4.330507626 1.893368565 1
13.5761916637 6.0788938999 2.771776047 0.7762748222 1
16.8182556629 6.0788938999 2.7966463011 -0.4209520655 1
20.0603196621 6.0788938999 4.9360165469 -1.6908401596 1
23.3023836613 6.0788938999 6.3977079985 -3.1229959199 1
26.5444476604 6.0788938999 6.1587599551 -4.7530893788 1
29.7865116596 6.0788938999 4.4528706166 -6.0243238644 1
33.0285756588 6.0788938999 3.454066684 -6.8101167643 1
36.270639658 6.0788938999 0 -0 0
39.5127036572 6.0788938999 0 -0 0
42.7547676563 6.0788938999 0 -0 0
-35.0547683239 2.8368299007 0 -0 0
-31.8127043247 2.8368299007 0 -0 0
-28.5706403255 2.8368299007 2.8619853693 1.1885132179 1
-25.3285763264 2.8368299007 0.6151947266 2.4735757586 1
-22.0865123272 2.8368299007 0.4626472874 5.0355274553 1
-18.844448328 2.8368299007 3.5040886009 7.170517447 1
-15.6023843288 2.8368299007 7.2527932766 8.2397173512 1
-12.3603203297 2.8368299007 6.8042784383 9.4448195703 1
-9.1182563305 2.8368299007 4.1807450238 10.7754240577 1
-5.8761923313 2.8368299007 1.5871378609 11.1090721879 1
-2.6341283321 2.8368299007 0.7374718151 8.7242482836 1
0.607935667 2.8368299007 0.580082643 5.0502310631 1
3.8499996662 2.8368299007 1.38238068 2.8581144891 1
7.0920636654 2.8368299007 2.0188406393 2.2692695261 1
10.3341276646 2.8368299007 1.6379819624 2.1144891219 1
13.5761916637 2.8368299007 1.1079619983 1.3435390245 1
16.8182556629 2.8368299007 2.0666894888 -0.0382683715 1
20.0603196621 2.8368299007 3.8388653855 -1.7250267949 1
23.3023836613 2.8368299007 4.0259451445 -3.2277071535 1
26.5444476604 2.8368299007 2.981714229 -4.6505013925 1
29.7865116596 2.8368299007 2.020813822 -5.8927109195 1
33.0285756588 2.8368299007 1.9469875018 -6.7951640554 1
36.270639658 2.8368299007 0 -0 0
39.5127036572 2.8368299007 0 -0 0
42.7547676563 2.8368299007 0 -0 0
-35.0547683239 -0.4052340984 0 -0 0
-31.8127043247 -0.4052340984 0 -0 0
-28.5706403255 -0.4052340984 2.9879961059 1.4092141527 1
-25.3285763264 -0.4052340984 -0.0146026593 2.6053882863 1
-22.0865123272 -0.4052340984 -2.0796969445 5.9236381046 1
-18.844448328 -0.4052340984 0.0344292942 8.8088363753 1
-15.6023843288 -0.4052340984 4.4176166209 9.9394166028 1
-12.3603203297 -0.4052340984 5.8233690231 10.1125959163 1
-9.1182563305 -0.4052340984 4.1288595288 10.0589905669 1
-5.8761923313 -0.4052340984 1.3908253583 9.3990791729 1
-2.6341283321 -0.4052340984 -0.4910581362 6.7071918121 1
0.607935667 -0.4052340984 -1.732836039 3.2252122172 1
3.8499996662 -0.4052340984 -1.6665044916 1.4388825469 1
7.0920636654 -0.4052340984 -1.2838294902 1.0269656426 1
10.3341276646 -0.4052340984 -1.2617461491 0.6416946303 1
13.5761916637 -0.4052340984 -1.382518214 -0.2852188563 1
16.8182556629 -0.4052340984 -0.397063081 -1.0001436437 1
20.0603196621 -0.4052340984 0.7527787759 -1.5608699232 1
23.3023836613 -0.4052340984 0.4278744341 -2.555302056 1
26.5444476604 -0.4052340984 -0.4100618182 -4.2226676826 1
29.7865116596 -0.4052340984 -0.5223354593 -5.6501854823 1
33.0285756588 -0.4052340984 0.058195929 -6.5624450493 1
36.270639658 -0.4052340984 0 -0 0
39.5127036572 -0.4052340984 0 -0 0
42.7547676563 -0.4052340984 0 -0 0
-35.0547683239 -3.6472980976 0 -0 0
-31.8127043247 -3.6472980976 0 -0 0
-28.5706403255 -3.6472980976 1.4876625816 7.0157776538 1
-25.3285763264 -3.6472980976 -1.3979088879 8.8154820908 1
-22.0865123272 -3.6472980976 -3.325786259 11.1239240485 1
-18.844448328 -3.6472980976 -1.9561079235 12.2315163204 1
-15.6023843288 -3.6472980976 2.1299291631 12.4089209925 1
-12.3603203297 -3.6472980976 4.5499487886 12.7582857416 1
-9.1182563305 -3.6472980976 3.5632505656 12.9311685494 1
-5.8761923313 -3.6472980976 0.5292148769 10.9094809109 1
-2.6341283321 -3.6472980976 -2.5923960786 6.6885608612 1
0.607935667 -3.6472980976 -4.2116936467 2.6811412903 1
3.8499996662 -3.6472980976 -4.150753855 1.1158076263 1
7.0920636654 -3.6472980976 -3.7616651796 0.6611411985 1
10.3341276646 -3.6472980976 -3.6418013524 -0.57768429 1
13.5761916637 -3.6472980976 -3.6731452157 -2.2176760077 1
16.8182556629 -3.6472980976 -2.927138442 -2.9702120988 1
20.0603196621 -3.6472980976 -2.0903681338 -2.5917689477 1
23.3023836613 -3.6472980976 -2.1813143424 -2.7953023629 1
26.5444476604 -3.6472980976 -2.5470056306 -4.1604072021 1
29.7865116596 -3.6472980976 -2.1294158639 -5.5640357532 1
33.0285756588 -3.6472980976 -1.4662155805 -6.3576223472 1
36.270639658 -3.6472980976 0 -0 0
39.5127036572 -3.6472980976 0 -0 0
42.7547676563 -3.6472980976 0 -0 0
-35.0547683239 -6.8893620968 0 -0 0
-31.8127043247 -6.8893620968 0 -0 0
-28.5706403255 -6.8893620968 -0.6612278555 13.9923042205 1
-25.3285763264 -6.8893620968 -2.4748469291 16.4685418886 1
-22.0865123272 -6.8893620968 -3.6574926083 16.3764704978 1
-18.844448328 -6.8893620968 -3.0056249154 14.223951941 1
-15.6023843288 -6.8893620968 -0.6531216527 12.8784484901 1
-12.3603203297 -6.8893620968 1.2444381516 14.1621833219 1
-9.1182563305 -6.8893620968 0.5091756745 14.9460419895 1
-5.8761923313 -6.8893620968 -2.2837862325 11.9990014262 1
-2.6341283321 -6.8893620968 -5.2049062409 6.7199844369 1
0.607935667 -6.8893620968 -6.2199017452 2.6969958961 1
3.8499996662 -6.8893620968 -6.0632186615 1.8115349277 1
7.0920636654 -6.8893620968 -5.9041013316 1.6677435054 1
10.3341276646 -6.8893620968 -5.773042146 -0.0042191184 1
13.5761916637 -6.8893620968 -5.3833206029 -2.3404319742 1
16.8182556629 -6.8893620968 -4.4588052617 -3.7853285766 1
20.0603196621 -6.8893620968 -3.5455239273 -3.8313223022 1
23.3023836613 -6.8893620968 -3.3889033453 -4.0676187021 1
26.5444476604 -6.8893620968 -3.6879067961 -5.0283433795 1
29.7865116596 -6.8893620968 -3.5429278409 -5.8719651758 1
33.0285756588 -6.8893620968 -2.9458687313 -6.4054407006 1
36.270639658 -6.8893620968 0 -0 0
39.5127036572 -6.8893620968 0 -0 0
42.7547676563 -6.8893620968 0 -0 0
-35.0547683239 -10.131426096 0 -0 0
-31.8127043247 -10.131426096 0 -0 0
-28.5706403255 -10.131426096 -2.5768660591 15.8455548265 1
-25.3285763264 -10.131426096 -3.3849805313 18.1935498122 1
-22.0865123272 -10.131426096 -3.7328099118 17.6290849025 1
-18.844448328 -10.131426096 -3.2006146157 14.0452670401 1
-15.6023843288 -10.131426096 -2.1842902702 12.1299784839 1
-12.3603203297 -10.131426096 -1.576189641 13.9783630131 1
-9.1182563305 -10.131426096 -2.6692955516 14.99413994 1
-5.8761923313 -10.131426096 -5.1873942825 11.571734761 1
-2.6341283321 -10.131426096 -6.9891899609 5.8742134265 1
0.607935667 -10.131426096 -6.9749993505 2.2333565447 1
3.8499996662 -10.131426096 -7.2452441544 2.0480524992 1
7.0920636654 -10.131426096 -7.6213342814 2.4260854638 1
10.3341276646 -10.131426096 -7.5691951561 1.0797443538 1
13.5761916637 -10.131426096 -6.4369059441 -1.2196193784 1
16.8182556629 -10.131426096 -5.4956667098 -3.3010576151 1
20.0603196621 -10.131426096 -4.868495655 -4.6495285394 1
23.3023836613 -10.131426096 -4.8541205588 -5.6302773222 1
26.5444476604 -10.131426096 -4.7851974541 -6.3303631381 1
29.7865116596 -10.131426096 -4.795473705 -6.7190224537 1
33.0285756588 -10.131426096 -4.1278782214 -6.9966805065 1
36.270639658 -10.131426096 0 -0 0
39.5127036572 -10.131426096 0 -0 0
42.7547676563 -10.131426096 0 -0 0
-35.0547683239 -13.3734900951 0 -0 0
-31.8127043247 -13.3734900951 0 -0 0
-28.5706403255 -13.3734900951 0 -0 0
-25.3285763264 -13.3734900951 -4.0377806172 14.890521128 1
-22.0865123272 -13.3734900951 -4.3173970576 15.1225058143 1
-18.844448328 -13.3734900951 -3.8566542236 13.1420367088 1
-15.6023843288 -13.3734900951 -3.0781936524 11.5488971719 1
-12.3603203297 -13.3734900951 -2.9556482896 12.4640275913 1
-9.1182563305 -13.3734900951 -4.2496572586 12.5650738683 1
-5.8761923313 -13.3734900951 -6.5475521247 9.320473131 1
-2.6341283321 -13.3734900951 -7.4466730427 4.3951470975 1
0.607935667 -13.3734900951 -7.1017878864 1.5170554549 1
3.8499996662 -13.3734900951 -7.9530149658 1.7042748614 1
7.0920636654 -13.3734900951 -8.5123130657 2.341533454 1
10.3341276646 -13.3734900951 -8.2471227495 1.608564179 1
13.5761916637 -13.3734900951 -6.5611285877 -0.5109341773 1
16.8182556629 -13.3734900951 -6.0342474484 -2.9751633229 1
20.0603196621 -13.3734900951 -6.1797738222 -5.352040751 1
23.3023836613 -13.3734900951 -6.3779459777 -6.7569685531 1
26.5444476604 -13.3734900951 -5.5918330207 -7.1164332195 1
29.7865116596 -13.3734900951 -5.2040970398 -7.0902640165 1
33.0285756588 -13.3734900951 -4.5632513913 -7.378162691 1
36.270639658 -13.3734900951 0 -0 0
39.5127036572 -13.3734900951 0 -0 0
42.7547676563 -13.3734900951 0 -0 0
-35.0547683239 -16.6155540943 0 -0 0
-31.8127043247 -16.6155540943 0 -0 0
-28.5706403255 -16.6155540943 0 -0 0
-25.3285763264 -16.6155540943 -4.4846743357 7.4791727352 1
-22.0865123272 -16.6155540943 -5.0054934109 9.2491601654 1
-18.844448328 -16.6155540943 -4.8465475834 10.7796741754 1
-15.6023843288 -16.6155540943 -4.081506466 11.1344641955 1
-12.3603203297 -16.6155540943 -4.1591725664 11.4859437374 1
-9.1182563305 -16.6155540943 -5.2928313816 10.6036221978 1
-5.8761923313 -16.6155540943 -6.9107203962 7.6887280563 1
-2.6341283321 -16.6155540943 -7.298620029 3.9275955001 1
0.607935667 -16.6155540943 -7.5806308593 1.8033757343 1
3.8499996662 -16.6155540943 -8.4434458201 1.6348213978 1
7.0920636654 -16.6155540943 -8.614463238 1.8304940881 1
10.3341276646 -16.6155540943 -7.7189770825 1.0847299992 1
13.5761916637 -16.6155540943 -6.2346630236 -0.7792465229 1
16.8182556629 -16.6155540943 -6.0438002493 -3.1425713413 1
20.0603196621 -16.6155540943 -6.2970826269 -5.4725120829 1
23.3023836613 -16.6155540943 -6.4507444917 -6.7617633719 1
26.5444476604 -16.6155540943 -5.2906586161 -6.9579964641 1
29.7865116596 -16.6155540943 -4.6403410869 -6.922209241 1
33.0285756588 -16.6155540943 0 -0 0
36.270639658 -16.6155540943 0 -0 0
39.5127036572 -16.6155540943 0 -0 0
42.7547676563 -16.6155540943 0 -0 0
-35.0547683239 -19.8576180935 0 -0 0
-31.8127043247 -19.8576180935 0 -0 0
-28.5706403255 -19.8576180935 0 -0 0
-25.3285763264 -19.8576180935 0 -0 0
-22.0865123272 -19.8576180935 -5.5469289992 5.6964886972 1
-18.844448328 -19.8576180935 -5.9741020627 9.0580286638 1
-15.6023843288 -19.8576180935 -5.8589708546 10.5362640519 1
-12.3603203297 -19.8576180935 -6.4376360368 10.80910615 1
-9.1182563305 -19.8576180935 -7.0797407781 9.4406715085 1
-5.8761923313 -19.8576180935 -7.5345359836 6.6789416335 1
-2.6341283321 -19.8576180935 -7.41270773 3.9328003544 1
0.607935667 -19.8576180935 -8.2474748124 2.600321117 1
3.8499996662 -19.8576180935 -8.7858345305 2.354070637 1
7.0920636654 -19.8576180935 -8.5383596808 2.0816829596 1
10.3341276646 -19.8576180935 -7.5468370489 1.0869673045 1
13.5761916637 -19.8576180935 -6.7870974069 -0.4685368678 1
16.8182556629 -19.8576180935 -6.2301864504 -2.4707458191 1
20.0603196621 -19.8576180935 -5.7766732853 -4.5951245567 1
23.3023836613 -19.8576180935 -5.3802414113 -5.8538306156 1
26.5444476604 -19.8576180935 -4.7145369825 -6.2522251043 1
29.7865116596 -19.8576180935 -4.0664909535 -6.3155179201 1
33.0285756588 -19.8576180935 0 -0 0
36.270639658 -19.8576180935 0 -0 0
39.5127036572 -19.8576180935 0 -0 0
42.7547676563 -19.8576180935 0 -0 0
-35.0547683239 -23.0996820927 0 -0 0
-31.8127043247 -23.0996820927 0 -0 0
-28.5706403255 -23.0996820927 0 -0 0
-25.3285763264 -23.0996820927 0 -0 0
-22.0865123272 -23.0996820927 -6.1004564079 4.4004075089 1
-18.844448328 -23.0996820927 -7.2753114124 7.3709469115 1
-15.6023843288 -23.0996820927 -8.5379587036 9.3244152692 1
-12.3603203297 -23.0996820927 -9.6131165022 10.1643805632 1
-9.1182563305 -23.0996820927 -9.5633156059 8.7936759312 1
-5.8761923313 -23.0996820927 -8.7879082594 6.0806128631 1
-2.6341283321 -23.0996820927 -8.3712529992 3.9434715437 1
0.607935667 -23.0996820927 -9.3522523928 3.3905996483 1
3.8499996662 -23.0996820927 -9.5793764373 3.5230154536 1
7.0920636654 -23.0996820927 -9.1607452769 3.0750673581 1
10.3341276646 -23.0996820927 -8.4870973914 1.6164698932 1
13.5761916637 -23.0996820927 -8.1242358918 -0.1149382303 1
16.8182556629 -23.0996820927 -7.0867252711 -1.7868471968 1
20.0603196621 -23.0996820927 -5.7453336491 -3.1483707169 1
23.3023836613 -23.0996820927 -5.0594961144 -4.1736463973 1
26.5444476604 -23.0996820927 -4.9527528197 -5.0478698866 1
29.7865116596 -23.0996820927 0 -0 0
33.0285756588 -23.0996820927 0 -0 0
36.270639658 -23.0996820927 0 -0 0
39.5127036572 -23.0996820927 0 -0 0
42.7547676563 -23.0996820927 0 -0 0
-35.0547683239 -26.3417460918 0 -0 0
-31.8127043247 -26.3417460918 0 -0 0
-28.5706403255 -26.3417460918 0 -0 0
-25.3285763264 -26.3417460918 0 -0 0
-22.0865123272 -26.3417460918 0 -0 0
-18.844448328 -26.3417460918 -8.4970910257 6.8854860016 1
-15.6023843288 -26.3417460918 -10.572800088 7.9807609033 1
-12.3603203297 -26.3417460918 -11.452557547 8.7683437079 1
-9.1182563305 -26.3417460918 -11.0423734806 7.7314713899 1
-5.8761923313 -26.3417460918 -10.3172543627 5.1629213824 1
-2.6341283321 -26.3417460918 -10.6526344248 3.3619826117 1
0.607935667 -26.3417460918 -11.5245039842 3.2208642707 1
3.8499996662 -26.3417460918 -11.2575291983 3.6061738559 1
7.0920636654 -26.3417460918 -10.4947616947 3.0988361324 1
10.3341276646 -26.3417460918 -9.8512462863 1.5107042826 1
13.5761916637 -26.3417460918 -9.2774079285 -0.2607715834 1
16.8182556629 -26.3417460918 -7.8879370763 -1.9487968817 1
20.0603196621 -26.3417460918 -6.5191733194 -3.0629142437 1
23.3023836613 -26.3417460918 -5.8305793677 -3.7313340255 1
26.5444476604 -26.3417460918 0 -0 0
29.7865116596 -26.3417460918 0 -0 0
33.0285756588 -26.3417460918 0 -0 0
36.270639658 -26.3417460918 0 -0 0
39.5127036572 -26.3417460918 0 -0 0
42.7547676563 -26.3417460918 0 -0 0
-35.0547683239 -29.583810091 0 -0 0
-31.8127043247 -29.583810091 0 -0 0
-28.5706403255 -29.583810091 0 -0 0
-25.3285763264 -29.583810091 0 -0 0
-22.0865123272 -29.583810091 0 -0 0
-18.844448328 -29.583810091 0 -0 0
-15.6023843288 -29.583810091 -11.3118495435 6.7087679427 1
-12.3603203297 -29.583810091 -11.3344419566 7.0514857685 1
-9.1182563305 -29.583810091 -10.9884951767 5.9527228474 1
-5.8761923313 -29.583810091 -11.49720975 3.9242741521 1
-2.6341283321 -29.583810091 -13.6496836196 2.7897647699 1
0.607935667 -29.583810091 -14.8420294467 2.9459475378 1
3.8499996662 -29.583810091 -13.8832226968 3.1904908449 1
7.0920636654 -29.583810091 -11.7442202148 2.1318529785 1
10.3341276646 -29.583810091 -10.1691512267 0.1497647535 1
13.5761916637 -29.583810091 -9.2027736149 -1.6809161226 1
16.8182556629 -29.583810091 -8.1737898005 -2.9964036455 1
20.0603196621 -29.583810091 -7.3467228106 -3.40803431 1
23.3023836613 -29.583810091 0 -0 0
26.5444476604 -29.583810091 0 -0 0
29.7865116596 -29.583810091 0 -0 0
33.0285756588 -29.583810091 0 -0 0
36.270639658 -29.583810091 0 -0 0
39.5127036572 -29.583810091 0 -0 0
42.7547676563 -29.583810091 0 -0 0
-35.0547683239 -32.8258740902 0 -0 0
-31.8127043247 -32.8258740902 0 -0 0
-28.5706403255 -32.8258740902 0 -0 0
-25.3285763264 -32.8258740902 0 -0 0
-22.0865123272 -32.8258740902 0 -0 0
-18.844448328 -32.8258740902 0 -0 0
-15.6023843288 -32.8258740902 0 -0 0
-12.3603203297 -32.8258740902 0 -0 0
-9.1182563305 -32.8258740902 -10.8462315745 4.6055886147 1
-5.8761923313 -32.8258740902 -12.7141250982 3.2489196976 1
-2.6341283321 -32.8258740902 -16.381976689 2.9688563849 1
0.607935667 -32.8258740902 -17.7783643995 3.2510486817 1
3.8499996662 -32.8258740902 -16.1934098719 2.8919170558 1
7.0920636654 -32.8258740902 -12.8358700161 1.1839071876 1
10.3341276646 -32.8258740902 -10.3020655362 -0.9441008776 1
13.5761916637 -32.8258740902 -9.1606510714 -2.4570218581 1
16.8182556629 -32.8258740902 -8.2936137715 -3.2747618988 1
20.0603196621 -32.8258740902 0 -0 0
23.3023836613 -32.8258740902 0 -0 0
26.5444476604 -32.8258740902 0 -0 0
29.7865116596 -32.8258740902 0 -0 0
33.0285756588 -32.8258740902 0 -0 0
36.270639658 -32.8258740902 0 -0 0
39.5127036572 -32.8258740902 0 -0 0
42.7547676563 -32.8258740902 0 -0 0
-35.0547683239 -36.0679380894 0 -0 0
-31.8127043247 -36.0679380894 0 -0 0
-28.5706403255 -36.0679380894 0 -0 0
-25.3285763264 -36.0679380894 0 -0 0
-22.0865123272 -36.0679380894 0 -0 0
-18.844448328 -36.0679380894 0 -0 0
-15.6023843288 -36.0679380894 0 -0 0
-12.3603203297 -36.0679380894 0 -0 0
-9.1182563305 -36.0679380894 0 -0 0
-5.8761923313 -36.0679380894 0 -0 0
-2.6341283321 -36.0679380894 0 -0 0
0.607935667 -36.0679380894 0 -0 0
3.8499996662 -36.0679380894 0 -0 0
7.0920636654 -36.0679380894 0 -0 0
10.3341276646 -36.0679380894 0 -0 0
13.5761916637 -36.0679380894 0 -0 0
16.8182556629 -36.0679380894 0 -0 0
20.0603196621 -36.0679380894 0 -0 0
23.3023836613 -36.0679380894 0 -0 0
26.5444476604 -36.0679380894 0 -0 0
29.7865116596 -36.0679380894 0 -0 0
33.0285756588 -36.0679380894 0 -0 0
36.270639658 -36.0679380894 0 -0 0
39.5127036572 -36.0679380894 0 -0 0
42.7547676563 -36.0679380894 0 -0 0
-35.0547683239 -39.3100020885 0 -0 0
-31.8127043247 -39.3100020885 0 -0 0
-28.5706403255 -39.3100020885 0 -0 0
-25.3285763264 -39.3100020885 0 -0 0
-22.0865123272 -39.3100020885 0 -0 0
-18.844448328 -39.3100020885 0 -0 0
-15.6023843288 -39.3100020885 0 -0 0
-12.3603203297 -39.3100020885 0 -0 0
-9.1182563305 -39.3100020885 0 -0 0
-5.8761923313 -39.3100020885 0 -0 0
-2.6341283321 -39.3100020885 0 -0 0
0.607935667 -39.3100020885 0 -0 0
3.8499996662 -39.3100020885 0 -0 0
7.0920636654 -39.3100020885 0 -0 0
10.3341276646 -39.3100020885 0 -0 0
13.5761916637 -39.3100020885 0 -0 0
16.8182556629 -39.3100020885 0 -0 0
20.0603196621 -39.3100020885 0 -0 0
23.3023836613 -39.3100020885 0 -0 0
26.5444476604 -39.3100020885 0 -0 0
29.7865116596 -39.3100020885 0 -0 0
33.0285756588 -39.3100020885 0 -0 0
36.270639658 -39.3100020885 0 -0 0
39.5127036572 -39.3100020885 0 -0 0
42.7547676563 -39.3100020885 0 -0 0
-35.0547683239 -42.5520660877 0 -0 0
-31.8127043247 -42.5520660877 0 -0 0
-28.5706403255 -42.5520660877 0 -0 0
-25.3285763264 -42.5520660877 0 -0 0
-22.0865123272 -42.5520660877 0 -0 0
-18.844448328 -42.5520660877 0 -0 0
-15.6023843288 -42.5520660877 0 -0 0
-12.3603203297 -42.5520660877 0 -0 0
-9.1182563305 -42.5520660877 0 -0 0
-5.8761923313 -42.5520660877 0 -0 0
-2.6341283321 -42.5520660877 0 -0 0
0.607935667 -42.5520660877 0 -0 0
3.8499996662 -42.5520660877 0 -0 0
7.0920636654 -42.5520660877 0 -0 0
10.3341276646 -42.5520660877 0 -0 0
13.5761916637 -42.5520660877 0 -0 0
16.8182556629 -42.5520660877 0 -0 0
20.0603196621 -42.5520660877 0 -0 0
23.3023836613 -42.5520660877 0 -0 0
26.5444476604 -42.5520660877 0 -0 0
29.7865116596 -42.5520660877 0 -0 0
33.0285756588 -42.5520660877 0 -0 0
36.270639658 -42.5520660877 0 -0 0
39.5127036572 -42.5520660877 0 -0 0
42.7547676563 -42.5520660877 0 -0 0
