TITLE = "B00090"
VARIABLES = "x", "y", "Vx", "Vy", "isValid"
ZONE T="Frame 0", I=25, J=25, F=POINT
-35.0547683239 35.2574698925 0 -0 0
-31.8127043247 35.2574698925 0 -0 0
-28.5706403255 35.2574698925 0 -0 0
-25.3285763264 35.2574698925 0 -0 0
-22.0865123272 35.2574698925 0 -0 0
-18.844448328 35.2574698925 0 -0 0
-15.6023843288 35.2574698925 0 -0 0
-12.3603203297 35.2574698925 0 -0 0
-9.1182563305 35.2574698925 0 -0 0
-5.8761923313 35.2574698925 0 -0 0
-2.6341283321 35.2574698925 0 -0 0
0.607935667 35.2574698925 0 -0 0
3.8499996662 35.2574698925 0 -0 0
7.0920636654 35.2574698925 0 -0 0
10.3341276646 35.2574698925 0 -0 0
13.5761916637 35.2574698925 0 -0 0
16.8182556629 35.2574698925 0 -0 0
20.0603196621 35.2574698925 0 -0 0
23.3023836613 35.2574698925 0 -0 0
26.5444476604 35.2574698925 0 -0 0
29.7865116596 35.2574698925 0 -0 0
33.0285756588 35.2574698925 0 -0 0
36.270639658 35.2574698925 0 -0 0
39.5127036572 35.2574698925 0 -0 0
42.7547676563 35.2574698925 0 -0 0
-35.0547683239 32.0154058933 0 -0 0
-31.8127043247 32.0154058933 0 -0 0
-28.5706403255 32.0154058933 0 -0 0
-25.3285763264 32.0154058933 0 -0 0
-22.0865123272 32.0154058933 0 -0 0
-18.844448328 32.0154058933 0 -0 0
-15.6023843288 32.0154058933 0 -0 0
-12.3603203297 32.0154058933 0 -0 0
-9.1182563305 32.0154058933 0 -0 0
-5.8761923313 32.0154058933 0 -0 0
-2.6341283321 32.0154058933 0 -0 0
0.607935667 32.0154058933 0 -0 0
3.8499996662 32.0154058933 0 -0 0
7.0920636654 32.0154058933 0 -0 0
10.3341276646 32.0154058933 0 -0 0
13.5761916637 32.0154058933 0 -0 0
16.8182556629 32.0154058933 0 -0 0
20.0603196621 32.0154058933 0 -0 0
23.3023836613 32.0154058933 0 -0 0
26.5444476604 32.0154058933 0 -0 0
29.7865116596 32.0154058933 0 -0 0
33.0285756588 32.0154058933 0 -0 0
36.270639658 32.0154058933 0 -0 0
39.5127036572 32.0154058933 0 -0 0
42.7547676563 32.0154058933 0 -0 0
-35.0547683239 28.7733418941 0 -0 0
-31.8127043247 28.7733418941 0 -0 0
-28.5706403255 28.7733418941 0 -0 0
-25.3285763264 28.7733418941 0 -0 0
-22.0865123272 28.7733418941 0 -0 0
-18.844448328 28.7733418941 0 -0 0
-15.6023843288 28.7733418941 0 -0 0
-12.3603203297 28.7733418941 0 -0 0
-9.1182563305 28.7733418941 0 -0 0
-5.8761923313 28.7733418941 0 -0 0
-2.6341283321 28.7733418941 0 -0 0
0.607935667 28.7733418941 0 -0 0
3.8499996662 28.7733418941 0 -0 0
7.0920636654 28.7733418941 0 -0 0
10.3341276646 28.7733418941 0 -0 0
13.5761916637 28.7733418941 0 -0 0
16.8182556629 28.7733418941 0 -0 0
20.0603196621 28.7733418941 0 -0 0
23.3023836613 28.7733418941 0 -0 0
26.5444476604 28.7733418941 0 -0 0
29.7865116596 28.7733418941 0 -0 0
33.0285756588 28.7733418941 0 -0 0
36.270639658 28.7733418941 0 -0 0
39.5127036572 28.7733418941 0 -0 0
42.7547676563 28.7733418941 0 -0 0
-35.0547683239 25.531277895 0 -0 0
-31.8127043247 25.531277895 0 -0 0
-28.5706403255 25.531277895 0 -0 0
-25.3285763264 25.531277895 0 -0 0
-22.0865123272 25.531277895 0 -0 0
-18.844448328 25.531277895 0 -0 0
-15.6023843288 25.531277895 0 -0 0
-12.3603203297 25.531277895 0 -0 0
-9.1182563305 25.531277895 10.7607594003 -4.6053020729 1
-5.8761923313 25.531277895 11.8981459757 -2.7689864166 1
-2.6341283321 25.531277895 9.9740564511 0.8543645455 1
0.607935667 25.531277895 5.6643821316 2.9984556347 1
3.8499996662 25.531277895 1.6003577319 1.667541658 1
7.0920636654 25.531277895 0.1640968609 -1.884275469 1
10.3341276646 25.531277895 0.9791246436 -2.7404394303 1
13.5761916637 25.531277895 2.2245525569 -0.9563352896 1
16.8182556629 25.531277895 0 -0 0
20.0603196621 25.531277895 0 -0 0
23.3023836613 25.531277895 0 -0 0
26.5444476604 25.531277895 0 -0 0
29.7865116596 25.531277895 0 -0 0
33.0285756588 25.531277895 0 -0 0
36.270639658 25.531277895 0 -0 0
39.5127036572 25.531277895 0 -0 0
42.7547676563 25.531277895 0 -0 0
-35.0547683239 22.2892138958 0 -0 0
-31.8127043247 22.2892138958 0 -0 0
-28.5706403255 22.2892138958 0 -0 0
-25.3285763264 22.2892138958 0 -0 0
-22.0865123272 22.2892138958 0 -0 0
-18.844448328 22.2892138958 0 -0 0
-15.6023843288 22.2892138958 6.7851414348 -3.0024089447 1
-12.3603203297 22.2892138958 7.4919949502 -4.0971017047 1
-9.1182563305 22.2892138958 9.6274381549 -4.7658116515 1
-5.8761923313 22.2892138958 10.8051060393 -3.7892921525 1
-2.6341283321 22.2892138958 9.2816163784 -1.6000701334 1
0.607935667 22.2892138958 5.4245107534 0.5574647158 1
3.8499996662 22.2892138958 1.536403213 0.2507315824 1
7.0920636654 22.2892138958 0.2999503369 -2.4079272012 1
10.3341276646 22.2892138958 1.4583957685 -4.0790245132 1
13.5761916637 22.2892138958 3.2701796463 -4.4550089609 1
16.8182556629 22.2892138958 4.4744633041 -3.4302520147 1
20.0603196621 22.2892138958 4.214891803 -2.670999705 1
23.3023836613 22.2892138958 0 -0 0
26.5444476604 22.2892138958 0 -0 0
29.7865116596 22.2892138958 0 -0 0
33.0285756588 22.2892138958 0 -0 0
36.270639658 22.2892138958 0 -0 0
39.5127036572 22.2892138958 0 -0 0
42.7547676563 22.2892138958 0 -0 0
-35.0547683239 19.0471498966 0 -0 0
-31.8127043247 19.0471498966 0 -0 0
-28.5706403255 19.0471498966 0 -0 0
-25.3285763264 19.0471498966 0 -0 0
-22.0865123272 19.0471498966 0 -0 0
-18.844448328 19.0471498966 9.3067481132 -0.6294531605 1
-15.6023843288 19.0471498966 8.4626715941 -2.3505513668 1
-12.3603203297 19.0471498966 8.6734020685 -3.4278265248 1
-9.1182563305 19.0471498966 9.5790992557 -4.0028053127 1
-5.8761923313 19.0471498966 10.0789627384 -4.2637295083 1
-2.6341283321 19.0471498966 8.7613441179 -4.2633837862 1
0.607935667 19.0471498966 5.8710291596 -3.1912360346 1
3.8499996662 19.0471498966 2.0664298198 -1.7038518424 1
7.0920636654 19.0471498966 0.6758984762 -1.3961008668 1
10.3341276646 19.0471498966 2.3241223437 -2.7318887707 1
13.5761916637 19.0471498966 4.9587762353 -5.5819559355 1
16.8182556629 19.0471498966 6.3804599363 -6.8958884636 1
20.0603196621 19.0471498966 5.1907065723 -6.1761239626 1
23.3023836613 19.0471498966 3.6860779411 -3.3513736223 1
26.5444476604 19.0471498966 0 -0 0
29.7865116596 19.0471498966 0 -0 0
33.0285756588 19.0471498966 0 -0 0
36.270639658 19.0471498966 0 -0 0
39.5127036572 19.0471498966 0 -0 0
42.7547676563 19.0471498966 0 -0 0
-35.0547683239 15.8050858974 0 -0 0
-31.8127043247 15.8050858974 0 -0 0
-28.5706403255 15.8050858974 0 -0 0
-25.3285763264 15.8050858974 0 -0 0
-22.0865123272 15.8050858974 12.0190019802 1.826367917 1
-18.844448328 15.8050858974 11.1283529151 0.1494841468 1
-15.6023843288 15.8050858974 10.8144009827 -0.9114068863 1
-12.3603203297 15.8050858974 10.4875416879 -1.9654715585 1
-9.1182563305 15.8050858974 9.7011467182 -3.4554773511 1
-5.8761923313 15.8050858974 8.8601554296 -5.5098681901 1
-2.6341283321 15.8050858974 7.7955655565 -7.2444971531 1
0.607935667 15.8050858974 6.159259969 -6.7742141998 1
3.8499996662 15.8050858974 3.2092591788 -3.0991561896 1
7.0920636654 15.8050858974 1.8842454259 0.8115221753 1
10.3341276646 15.8050858974 3.6847161884 1.2622722053 1
13.5761916637 15.8050858974 6.6446798149 -3.3399358055 1
16.8182556629 15.8050858974 8.0811296253 -8.0150776751 1
20.0603196621 15.8050858974 6.2679006592 -8.6936387402 1
23.3023836613 15.8050858974 4.3588411403 -5.3569726509 1
26.5444476604 15.8050858974 3.7166177362 -1.8655192128 1
29.7865116596 15.8050858974 0 -0 0
33.0285756588 15.8050858974 0 -0 0
36.270639658 15.8050858974 0 -0 0
39.5127036572 15.8050858974 0 -0 0
42.7547676563 15.8050858974 0 -0 0
-35.0547683239 12.5630218983 0 -0 0
-31.8127043247 12.5630218983 0 -0 0
-28.5706403255 12.5630218983 0 -0 0
-25.3285763264 12.5630218983 0 -0 0
-22.0865123272 12.5630218983 11.9688230541 2.2374876978 1
-18.844448328 12.5630218983 12.4046744981 1.4314105706 1
-15.6023843288 12.5630218983 12.41788984 0.8961557846 1
-12.3603203297 12.5630218983 11.1367142578 -0.5644665326 1
-9.1182563305 12.5630218983 8.3136753175 -3.9158551387 1
-5.8761923313 12.5630218983 6.1540810816 -7.8702469728 1
-2.6341283321 12.5630218983 5.6622975328 -9.7031824026 1
0.607935667 12.5630218983 5.851133681 -8.7206793442 1
3.8499996662 12.5630218983 4.7568017401 -4.3813215334 1
7.0920636654 12.5630218983 4.1505283053 0.3726952564 1
10.3341276646 12.5630218983 5.9812351106 2.2048104642 1
13.5761916637 12.5630218983 8.7588555224 -1.6346646906 1
16.8182556629 12.5630218983 10.2707446203 -7.2516018185 1
20.0603196621 12.5630218983 8.8250819944 -9.9370650884 1
23.3023836613 12.5630218983 7.0793434241 -7.9374541483 1
26.5444476604 12.5630218983 6.6762918016 -4.8187249528 1
29.7865116596 12.5630218983 8.4354196316 -3.2793221097 1
33.0285756588 12.5630218983 0 -0 0
36.270639658 12.5630218983 0 -0 0
39.5127036572 12.5630218983 0 -0 0
42.7547676563 12.5630218983 0 -0 0
-35.0547683239 9.3209578991 0 -0 0
-31.8127043247 9.3209578991 0 -0 0
-28.5706403255 9.3209578991 0 -0 0
-25.3285763264 9.3209578991 10.6961175133 4.4302422725 1
-22.0865123272 9.3209578991 11.7226906329 4.2619344707 1
-18.844448328 9.3209578991 13.0950619777 3.9668366232 1
-15.6023843288 9.3209578991 12.7571758075 2.9713588697 1
-12.3603203297 9.3209578991 9.5378571713 0.0430350084 1
-9.1182563305 9.3209578991 4.6570522986 -4.9434047347 1
-5.8761923313 9.3209578991 1.8437847641 -9.7785148032 1
-2.6341283321 9.3209578991 2.4430241878 -10.9027005298 1
0.607935667 9.3209578991 4.4761348479 -9.2455398961 1
3.8499996662 9.3209578991 5.1919807622 -5.5091984855 1
7.0920636654 9.3209578991 5.4522735997 -2.2774050172 1
10.3341276646 9.3209578991 6.9189808907 -1.0618758789 1
13.5761916637 9.3209578991 9.2884867378 -3.827517849 1
16.8182556629 9.3209578991 11.291545841 -8.574101009 1
20.0603196621 9.3209578991 11.3601407361 -11.2954771093 1
23.3023836613 9.3209578991 10.4885670786 -10.2230053754 1
26.5444476604 9.3209578991 10.0773074993 -7.7285147863 1
29.7865116596 9.3209578991 11.2839598821 -6.6950755344 1
33.0285756588 9.3209578991 0 -0 0
36.270639658 9.3209578991 0 -0 0
39.5127036572 9.3209578991 0 -0 0
42.7547676563 9.3209578991 0 -0 0
-35.0547683239 6.0788938999 0 -0 0
-31.8127043247 6.0788938999 0 -0 0
-28.5706403255 6.0788938999 0 -0 0
-25.3285763264 6.0788938999 9.5813432792 6.0234440091 1
-22.0865123272 6.0788938999 11.3430726305 6.111836554 1
-18.844448328 6.0788938999 12.2528864775 6.0931627276 1
-15.6023843288 6.0788938999 10.282936987 4.0994263464 1
-12.3603203297 6.0788938999 5.2950645352 0.0218019984 1
-9.1182563305 6.0788938999 -0.4991657354 -4.7061122323 1
-5.8761923313 6.0788938999 -3.2304620607 -8.8044630658 1
-2.6341283321 6.0788938999 -1.5181676535 -10.2070870601 1
0.607935667 6.0788938999 2.2785923991 -9.9082231059 1
3.8499996662 6.0788938999 4.8805711707 -8.4327208853 1
7.0920636654 6.0788938999 5.9452788006 -7.3047989441 1
10.3341276646 6.0788938999 6.9031990526 -7.1603076232 1
13.5761916637 6.0788938999 8.8327983917 -8.6289455232 1
16.8182556629 6.0788938999 11.2382074071 -11.2882872966 1
20.0603196621 6.0788938999 12.4321957918 -12.5967679829 1
23.3023836613 6.0788938999 12.0502661311 -11.589615691 1
26.5444476604 6.0788938999 11.4812503707 -9.8581305349 1
29.7865116596 6.0788938999 12.2938393026 -9.4855767378 1
33.0285756588 6.0788938999 14.0536742778 -9.9874638273 1
36.270639658 6.0788938999 0 -0 0
39.5127036572 6.0788938999 0 -0 0
42.7547676563 6.0788938999 0 -0 0
-35.0547683239 2.8368299007 0 -0 0
-31.8127043247 2.8368299007 0 -0 0
-28.5706403255 2.8368299007 5.9361728721 8.4068185979 1
-25.3285763264 2.8368299007 8.2288003821 7.2481343311 1
-22.0865123272 2.8368299007 9.8241326126 7.2626166163 1
-18.844448328 2.8368299007 8.8783521896 6.6934523011 1
-15.6023843288 2.8368299007 4.6833072528 3.6532950282 1
-12.3603203297 2.8368299007 -0.3106902932 -0.9579352735 1
-9.1182563305 2.8368299007 -5.5468806887 -4.2950196262 1
-5.8761923313 2.8368299007 -8.1915336495 -6.3623145061 1
-2.6341283321 2.8368299007 -6.2622924121 -8.4866354221 1
0.607935667 2.8368299007 -1.0534570164 -11.2427739587 1
3.8499996662 2.8368299007 3.8908795073 -12.1321101854 1
7.0920636654 2.8368299007 5.7886174567 -11.6652373508 1
10.3341276646 2.8368299007 6.1785092944 -11.1595494314 1
13.5761916637 2.8368299007 7.2190960872 -11.797220475 1
16.8182556629 2.8368299007 9.0529397548 -13.1153137464 1
20.0603196621 2.8368299007 10.7820848702 -12.7102119463 1
23.3023836613 2.8368299007 11.1336948505 -10.7642933146 1
26.5444476604 2.8368299007 10.9401242717 -8.6234465786 1
29.7865116596 2.8368299007 11.433489386 -8.6238095114 1
33.0285756588 2.8368299007 12.5218444101 -9.6118398968 1
36.270639658 2.8368299007 0 -0 0
39.5127036572 2.8368299007 0 -0 0
42.7547676563 2.8368299007 0 -0 0
-35.0547683239 -0.4052340984 0 -0 0
-31.8127043247 -0.4052340984 0 -0 0
-28.5706403255 -0.4052340984 4.5526725959 9.6307220623 1
-25.3285763264 -0.4052340984 7.0107171272 8.4059870531 1
-22.0865123272 -0.4052340984 8.1575139874 6.970106099 1
-18.844448328 -0.4052340984 5.3092098545 5.1671811622 1
-15.6023843288 -0.4052340984 -0.2549399568 1.25251567 1
-12.3603203297 -0.4052340984 -4.3771239534 -3.2650674878 1
-9.1182563305 -0.4052340984 -7.9205201044 -5.1740110615 1
-5.8761923313 -0.4052340984 -10.7116481367 -5.1455187265 1
-2.6341283321 -0.4052340984 -9.6104926373 -7.0734066655 1
0.607935667 -0.4052340984 -3.893194185 -11.7768008273 1
3.8499996662 -0.4052340984 3.1066132198 -14.7105572062 1
7.0920636654 -0.4052340984 6.4452111259 -15.0411678126 1
10.3341276646 -0.4052340984 6.4555839977 -13.7116817136 1
13.5761916637 -0.4052340984 6.1443567784 -13.2707359256 1
16.8182556629 -0.4052340984 6.6105019359 -13.028161574 1
20.0603196621 -0.4052340984 8.4353532046 -11.3725770709 1
23.3023836613 -0.4052340984 9.5326227268 -8.9807016428 1
26.5444476604 -0.4052340984 9.7728781736 -6.7421686262 1
29.7865116596 -0.4052340984 9.4862959606 -6.5358011954 1
33.0285756588 -0.4052340984 9.7976554299 -7.4389898589 1
36.270639658 -0.4052340984 0 -0 0
39.5127036572 -0.4052340984 0 -0 0
42.7547676563 -0.4052340984 0 -0 0
-35.0547683239 -3.6472980976 0 -0 0
-31.8127043247 -3.6472980976 0 -0 0
-28.5706403255 -3.6472980976 2.9444465905 9.0361911025 1
-25.3285763264 -3.6472980976 4.9605495332 7.7094955397 1
-22.0865123272 -3.6472980976 5.7319848494 5.781203604 1
-18.844448328 -3.6472980976 3.256569064 2.8889365989 1
-15.6023843288 -3.6472980976 -1.3864666929 -2.0576995055 1
-12.3603203297 -3.6472980976 -4.1984695486 -6.6448772842 1
-9.1182563305 -3.6472980976 -6.8176616592 -8.1538707705 1
-5.8761923313 -3.6472980976 -9.4675406102 -7.0724446823 1
-2.6341283321 -3.6472980976 -8.4477291513 -7.4937510375 1
0.607935667 -3.6472980976 -2.6190613703 -11.3379396381 1
3.8499996662 -3.6472980976 4.6999411676 -14.4770108825 1
7.0920636654 -3.6472980976 7.9947401553 -15.7586913095 1
10.3341276646 -3.6472980976 7.1677371768 -14.0049821079 1
13.5761916637 -3.6472980976 5.2565833969 -11.881159998 1
16.8182556629 -3.6472980976 4.179271855 -9.6511549954 1
20.0603196621 -3.6472980976 5.8302399863 -7.6901948843 1
23.3023836613 -3.6472980976 7.6840280469 -6.4604216921 1
26.5444476604 -3.6472980976 8.220558608 -5.4069686009 1
29.7865116596 -3.6472980976 7.3731897272 -4.879525248 1
33.0285756588 -3.6472980976 7.018359851 -5.2009006952 1
36.270639658 -3.6472980976 0 -0 0
39.5127036572 -3.6472980976 0 -0 0
42.7547676563 -3.6472980976 0 -0 0
-35.0547683239 -6.8893620968 0 -0 0
-31.8127043247 -6.8893620968 0 -0 0
-28.5706403255 -6.8893620968 1.319959718 7.2936295526 1
-25.3285763264 -6.8893620968 2.0548115934 6.2978447253 1
-22.0865123272 -6.8893620968 2.2528139073 4.4226581252 1
-18.844448328 -6.8893620968 1.5551455799 1.1460113614 1
-15.6023843288 -6.8893620968 -0.0956312059 -4.4364921437 1
-12.3603203297 -6.8893620968 -1.8735526478 -9.4589974992 1
-9.1182563305 -6.8893620968 -4.0017382542 -11.3385338574 1
-5.8761923313 -6.8893620968 -5.5114485479 -9.6525596237 1
-2.6341283321 -6.8893620968 -2.5702312135 -8.0814629679 1
0.607935667 -6.8893620968 3.6169202285 -9.4518149331 1
3.8499996662 -6.8893620968 9.6740179475 -11.9041111168 1
7.0920636654 -6.8893620968 11.420799421 -13.5230520929 1
10.3341276646 -6.8893620968 9.2594617793 -11.6782703205 1
13.5761916637 -6.8893620968 5.8005537776 -8.0978601612 1
16.8182556629 -6.8893620968 2.8651892624 -4.6462135322 1
20.0603196621 -6.8893620968 2.8349191003 -3.0610766324 1
23.3023836613 -6.8893620968 4.2161146629 -3.5291626649 1
26.5444476604 -6.8893620968 5.212251855 -4.4145461856 1
29.7865116596 -6.8893620968 5.471966778 -4.7049721041 1
33.0285756588 -6.8893620968 5.5345699612 -4.8960266108 1
36.270639658 -6.8893620968 0 -0 0
39.5127036572 -6.8893620968 0 -0 0
42.7547676563 -6.8893620968 0 -0 0
-35.0547683239 -10.131426096 0 -0 0
-31.8127043247 -10.131426096 0 -0 0
-28.5706403255 -10.131426096 1.041762852 4.699103886 1
-25.3285763264 -10.131426096 0.3998409358 4.207535319 1
-22.0865123272 -10.131426096 -0.6830849675 3.2069336313 1
-18.844448328 -10.131426096 -0.8962717298 0.0840280954 1
-15.6023843288 -10.131426096 -0.2097062915 -5.8893267678 1
-12.3603203297 -10.131426096 -0.509914297 -11.2297651443 1
-9.1182563305 -10.131426096 -2.0115274839 -13.5365959463 1
-5.8761923313 -10.131426096 -2.6616410521 -11.7203137555 1
-2.6341283321 -10.131426096 1.1517979045 -8.6481664662 1
0.607935667 -10.131426096 7.1641489131 -7.1869858983 1
3.8499996662 -10.131426096 12.4979802226 -8.0069228598 1
7.0920636654 -10.131426096 13.7773067197 -9.2261661711 1
10.3341276646 -10.131426096 11.8515879229 -7.7938607991 1
13.5761916637 -10.131426096 8.1240535195 -3.8730477936 1
16.8182556629 -10.131426096 3.8889793943 -0.2330091335 1
20.0603196621 -10.131426096 1.3629018796 0.6970198342 1
23.3023836613 -10.131426096 1.4687405599 -0.8933817041 1
26.5444476604 -10.131426096 3.3081151777 -3.1949118611 1
29.7865116596 -10.131426096 5.3547207769 -4.6480816395 1
33.0285756588 -10.131426096 6.0229307099 -5.2128255424 1
36.270639658 -10.131426096 0 -0 0
39.5127036572 -10.131426096 0 -0 0
42.7547676563 -10.131426096 0 -0 0
-35.0547683239 -13.3734900951 0 -0 0
-31.8127043247 -13.3734900951 0 -0 0
-28.5706403255 -13.3734900951 0 -0 0
-25.3285763264 -13.3734900951 2.4146034126 4.775381361 1
-22.0865123272 -13.3734900951 -0.157878769 3.6034536719 1
-18.844448328 -13.3734900951 -1.9758915331 -0.0535194662 1
-15.6023843288 -13.3734900951 -1.7238803259 -6.5514984901 1
-12.3603203297 -13.3734900951 -1.3516402452 -11.9196489868 1
-9.1182563305 -13.3734900951 -1.8151313437 -14.3004902928 1
-5.8761923313 -13.3734900951 -1.9794902137 -12.3442706512 1
-2.6341283321 -13.3734900951 1.0655926183 -7.8307718456 1
0.607935667 -13.3734900951 5.6835801271 -4.0631958743 1
3.8499996662 -13.3734900951 10.1686125645 -3.6650526003 1
7.0920636654 -13.3734900951 12.0624101873 -4.792070531 1
10.3341276646 -13.3734900951 11.8149661356 -4.4677436131 1
13.5761916637 -13.3734900951 9.5301123916 -1.6915873119 1
16.8182556629 -13.3734900951 5.7894290733 1.1773552247 1
20.0603196621 -13.3734900951 2.4291300831 1.9834021578 1
23.3023836613 -13.3734900951 1.9882911821 0.5309068018 1
26.5444476604 -13.3734900951 4.3485069168 -1.8916787537 1
29.7865116596 -13.3734900951 6.8294192313 -3.6214034444 1
33.0285756588 -13.3734900951 7.3689408173 -4.5074077552 1
36.270639658 -13.3734900951 0 -0 0
39.5127036572 -13.3734900951 0 -0 0
42.7547676563 -13.3734900951 0 -0 0
-35.0547683239 -16.6155540943 0 -0 0
-31.8127043247 -16.6155540943 0 -0 0
-28.5706403255 -16.6155540943 0 -0 0
-25.3285763264 -16.6155540943 4.8752944545 6.2955040808 1
-22.0865123272 -16.6155540943 1.685875952 4.6970597472 1
-18.844448328 -16.6155540943 -1.9897555946 0.3012772721 1
-15.6023843288 -16.6155540943 -3.7175265778 -6.4359463765 1
-12.3603203297 -16.6155540943 -4.0205515772 -12.1481456537 1
-9.1182563305 -16.6155540943 -3.6988035351 -14.9219543658 1
-5.8761923313 -16.6155540943 -3.0991734002 -12.6446400818 1
-2.6341283321 -16.6155540943 -2.1509688461 -6.5738910185 1
0.607935667 -16.6155540943 -0.103863318 -0.8679295348 1
3.8499996662 -16.6155540943 3.1601883752 0.4052908905 1
7.0920636654 -16.6155540943 6.5032205828 -1.4292655837 1
10.3341276646 -16.6155540943 8.3571137187 -2.8737199938 1
13.5761916637 -16.6155540943 8.4354691499 -2.169971033 1
16.8182556629 -16.6155540943 7.0542352408 -0.5688251981 1
20.0603196621 -16.6155540943 5.4695965432 0.2674964074 1
23.3023836613 -16.6155540943 5.2982228352 -0.6116197484 1
26.5444476604 -16.6155540943 6.8738673223 -2.3150441937 1
29.7865116596 -16.6155540943 8.4365464744 -3.3691295488 1
33.0285756588 -16.6155540943 0 -0 0
36.270639658 -16.6155540943 0 -0 0
39.5127036572 -16.6155540943 0 -0 0
42.7547676563 -16.6155540943 0 -0 0
-35.0547683239 -19.8576180935 0 -0 0
-31.8127043247 -19.8576180935 0 -0 0
-28.5706403255 -19.8576180935 0 -0 0
-25.3285763264 -19.8576180935 0 -0 0
-22.0865123272 -19.8576180935 1.1771539057 4.6477947958 1
-18.844448328 -19.8576180935 -3.4934430766 0.1529231856 1
-15.6023843288 -19.8576180935 -7.0175277023 -6.4802912038 1
-12.3603203297 -19.8576180935 -7.4563997614 -12.5784848678 1
-9.1182563305 -19.8576180935 -6.1338552798 -15.7364491476 1
-5.8761923313 -19.8576180935 -4.0490611229 -12.9649991965 1
-2.6341283321 -19.8576180935 -3.671156936 -5.5189590216 1
0.607935667 -19.8576180935 -3.5211452327 1.4666235024 1
3.8499996662 -19.8576180935 -1.7959745631 3.5719229073 1
7.0920636654 -19.8576180935 0.8258758338 1.2291204719 1
10.3341276646 -19.8576180935 3.0699464433 -1.3679047356 1
13.5761916637 -19.8576180935 4.6621644571 -2.5720905645 1
16.8182556629 -19.8576180935 6.1372883459 -2.6902109859 1
20.0603196621 -19.8576180935 7.3404134571 -2.3765982839 1
23.3023836613 -19.8576180935 7.5784212571 -2.7383602664 1
26.5444476604 -19.8576180935 7.7889186332 -3.3878293421 1
29.7865116596 -19.8576180935 8.1204767297 -3.7151204122 1
33.0285756588 -19.8576180935 0 -0 0
36.270639658 -19.8576180935 0 -0 0
39.5127036572 -19.8576180935 0 -0 0
42.7547676563 -19.8576180935 0 -0 0
-35.0547683239 -23.0996820927 0 -0 0
-31.8127043247 -23.0996820927 0 -0 0
-28.5706403255 -23.0996820927 0 -0 0
-25.3285763264 -23.0996820927 0 -0 0
-22.0865123272 -23.0996820927 -4.0903047169 2.7979482695 1
-18.844448328 -23.0996820927 -9.3679611613 -1.1970723318 1
-15.6023843288 -23.0996820927 -11.9039516921 -7.3959663243 1
-12.3603203297 -23.0996820927 -10.7040259449 -14.2263590125 1
-9.1182563305 -23.0996820927 -7.5346090532 -17.7713436736 1
-5.8761923313 -23.0996820927 -4.1919850695 -14.1482348679 1
-2.6341283321 -23.0996820927 -3.3002544527 -5.3667639849 1
0.607935667 -23.0996820927 -3.5589992401 2.3211270917 1
3.8499996662 -23.0996820927 -3.0497740851 5.2033240715 1
7.0920636654 -23.0996820927 -2.1027914851 3.5362609896 1
10.3341276646 -23.0996820927 -1.0824969965 1.0021361505 1
13.5761916637 -23.0996820927 0.2679430154 -1.4032638067 1
16.8182556629 -23.0996820927 2.7678749728 -3.3254212126 1
20.0603196621 -23.0996820927 5.3102020318 -4.0064213549 1
23.3023836613 -23.0996820927 5.9264854057 -4.2290917736 1
26.5444476604 -23.0996820927 5.8897820944 -4.2314070551 1
29.7865116596 -23.0996820927 0 -0 0
33.0285756588 -23.0996820927 0 -0 0
36.270639658 -23.0996820927 0 -0 0
39.5127036572 -23.0996820927 0 -0 0
42.7547676563 -23.0996820927 0 -0 0
-35.0547683239 -26.3417460918 0 -0 0
-31.8127043247 -26.3417460918 0 -0 0
-28.5706403255 -26.3417460918 0 -0 0
-25.3285763264 -26.3417460918 0 -0 0
-22.0865123272 -26.3417460918 0 -0 0
-18.844448328 -26.3417460918 -15.0545474103 -3.5920750355 1
-15.6023843288 -26.3417460918 -14.8293165342 -9.265861715 1
-12.3603203297 -26.3417460918 -11.8302841927 -14.8281727827 1
-9.1182563305 -26.3417460918 -8.0108692252 -17.3471217787 1
-5.8761923313 -26.3417460918 -5.3594829861 -13.7564474463 1
-2.6341283321 -26.3417460918 -3.9928083571 -6.1592648 1
0.607935667 -26.3417460918 -3.421814583 1.1386724655 1
3.8499996662 -26.3417460918 -3.7565140707 5.2482184309 1
7.0920636654 -26.3417460918 -4.5268928963 5.1709324738 1
10.3341276646 -26.3417460918 -5.1573964709 2.8779948707 1
13.5761916637 -26.3417460918 -4.8470177051 0.013219904 1
16.8182556629 -26.3417460918 -2.9725376463 -2.1499274525 1
20.0603196621 -26.3417460918 0.1538459165 -3.3040570943 1
23.3023836613 -26.3417460918 2.0144729157 -3.8650623671 1
26.5444476604 -26.3417460918 0 -0 0
29.7865116596 -26.3417460918 0 -0 0
33.0285756588 -26.3417460918 0 -0 0
36.270639658 -26.3417460918 0 -0 0
39.5127036572 -26.3417460918 0 -0 0
42.7547676563 -26.3417460918 0 -0 0
-35.0547683239 -29.583810091 0 -0 0
-31.8127043247 -29.583810091 0 -0 0
-28.5706403255 -29.583810091 0 -0 0
-25.3285763264 -29.583810091 0 -0 0
-22.0865123272 -29.583810091 0 -0 0
-18.844448328 -29.583810091 0 -0 0
-15.6023843288 -29.583810091 -15.0842378461 -10.4604938373 1
-12.3603203297 -29.583810091 -11.2253133302 -13.5633575571 1
-9.1182563305 -29.583810091 -8.5837323144 -14.1711038588 1
-5.8761923313 -29.583810091 -6.7523349706 -11.4668876541 1
-2.6341283321 -29.583810091 -5.0024981589 -6.2589004099 1
0.607935667 -29.583810091 -3.8554132472 -0.9364660798 1
3.8499996662 -29.583810091 -5.3238769274 3.1542709407 1
7.0920636654 -29.583810091 -7.8639388271 3.962838626 1
10.3341276646 -29.583810091 -9.7378433868 2.2352395981 1
13.5761916637 -29.583810091 -10.3174560591 0.0779130549 1
16.8182556629 -29.583810091 -9.3023180388 -1.100994565 1
20.0603196621 -29.583810091 -6.585437232 -1.5207249405 1
23.3023836613 -29.583810091 0 -0 0
26.5444476604 -29.583810091 0 -0 0
29.7865116596 -29.583810091 0 -0 0
33.0285756588 -29.583810091 0 -0 0
36.270639658 -29.583810091 0 -0 0
39.5127036572 -29.583810091 0 -0 0
42.7547676563 -29.583810091 0 -0 0
-35.0547683239 -32.8258740902 0 -0 0
-31.8127043247 -32.8258740902 0 -0 0
-28.5706403255 -32.8258740902 0 -0 0
-25.3285763264 -32.8258740902 0 -0 0
-22.0865123272 -32.8258740902 0 -0 0
-18.844448328 -32.8258740902 0 -0 0
-15.6023843288 -32.8258740902 0 -0 0
-12.3603203297 -32.8258740902 0 -0 0
-9.1182563305 -32.8258740902 -8.9207857321 -9.3872769137 1
-5.8761923313 -32.8258740902 -7.7512515271 -8.0494759708 1
-2.6341283321 -32.8258740902 -5.5117607546 -5.6814109849 1
0.607935667 -32.8258740902 -4.2908350296 -1.724292475 1
3.8499996662 -32.8258740902 -6.9487226565 1.7390261259 1
7.0920636654 -32.8258740902 -10.5782495143 2.7929979512 1
10.3341276646 -32.8258740902 -13.2302058175 1.0134553046 1
13.5761916637 -32.8258740902 -13.9238518415 -0.2369142461 1
16.8182556629 -32.8258740902 -13.6915881619 -0.5392409321 1
20.0603196621 -32.8258740902 0 -0 0
23.3023836613 -32.8258740902 0 -0 0
26.5444476604 -32.8258740902 0 -0 0
29.7865116596 -32.8258740902 0 -0 0
33.0285756588 -32.8258740902 0 -0 0
36.270639658 -32.8258740902 0 -0 0
39.5127036572 -32.8258740902 0 -0 0
42.7547676563 -32.8258740902 0 -0 0
-35.0547683239 -36.0679380894 0 -0 0
-31.8127043247 -36.0679380894 0 -0 0
-28.5706403255 -36.0679380894 0 -0 0
-25.3285763264 -36.0679380894 0 -0 0
-22.0865123272 -36.0679380894 0 -0 0
-18.844448328 -36.0679380894 0 -0 0
-15.6023843288 -36.0679380894 0 -0 0
-12.3603203297 -36.0679380894 0 -0 0
-9.1182563305 -36.0679380894 0 -0 0
-5.8761923313 -36.0679380894 0 -0 0
-2.6341283321 -36.0679380894 0 -0 0
0.607935667 -36.0679380894 0 -0 0
3.8499996662 -36.0679380894 0 -0 0
7.0920636654 -36.0679380894 0 -0 0
10.3341276646 -36.0679380894 0 -0 0
13.5761916637 -36.0679380894 0 -0 0
16.8182556629 -36.0679380894 0 -0 0
20.0603196621 -36.0679380894 0 -0 0
23.3023836613 -36.0679380894 0 -0 0
26.5444476604 -36.0679380894 0 -0 0
29.7865116596 -36.0679380894 0 -0 0
33.0285756588 -36.0679380894 0 -0 0
36.270639658 -36.0679380894 0 -0 0
39.5127036572 -36.0679380894 0 -0 0
42.7547676563 -36.0679380894 0 -0 0
-35.0547683239 -39.3100020885 0 -0 0
-31.8127043247 -39.3100020885 0 -0 0
-28.5706403255 -39.3100020885 0 -0 0
-25.3285763264 -39.3100020885 0 -0 0
-22.0865123272 -39.3100020885 0 -0 0
-18.844448328 -39.3100020885 0 -0 0
-15.6023843288 -39.3100020885 0 -0 0
-12.3603203297 -39.3100020885 0 -0 0
-9.1182563305 -39.3100020885 0 -0 0
-5.8761923313 -39.3100020885 0 -0 0
-2.6341283321 -39.3100020885 0 -0 0
0.607935667 -39.3100020885 0 -0 0
3.8499996662 -39.3100020885 0 -0 0
7.0920636654 -39.3100020885 0 -0 0
10.3341276646 -39.3100020885 0 -0 0
13.5761916637 -39.3100020885 0 -0 0
16.8182556629 -39.3100020885 0 -0 0
20.0603196621 -39.3100020885 0 -0 0
23.3023836613 -39.3100020885 0 -0 0
26.5444476604 -39.3100020885 0 -0 0
29.7865116596 -39.3100020885 0 -0 0
33.0285756588 -39.3100020885 0 -0 0
36.270639658 -39.3100020885 0 -0 0
39.5127036572 -39.3100020885 0 -0 0
42.7547676563 -39.3100020885 0 -0 0
-35.0547683239 -42.5520660877 0 -0 0
-31.8127043247 -42.5520660877 0 -0 0
-28.5706403255 -42.5520660877 0 -0 0
-25.3285763264 -42.5520660877 0 -0 0
-22.0865123272 -42.5520660877 0 -0 0
-18.844448328 -42.5520660877 0 -0 0
-15.6023843288 -42.5520660877 0 -0 0
-12.3603203297 -42.5520660877 0 -0 0
-9.1182563305 -42.5520660877 0 -0 0
-5.8761923313 -42.5520660877 0 -0 0
-2.6341283321 -42.5520660877 0 -0 0
0.607935667 -42.5520660877 0 -0 0
3.8499996662 -42.5520660877 0 -0 0
7.0920636654 -42.5520660877 0 -0 0
10.3341276646 -42.5520660877 0 -0 0
13.5761916637 -42.5520660877 0 -0 0
16.8182556629 -42.5520660877 0 -0 0
20.0603196621 -42.5520660877 0 -0 0
23.3023836613 -42.5520660877 0 -0 0
26.5444476604 -42.5520660877 0 -0 0
29.7865116596 -42.5520660877 0 -0 0
33.0285756588 -42.5520660877 0 -0 0
36.270639658 -42.5520660877 0 -0 0
39.5127036572 -42.5520660877 0 -0 0
42.7547676563 -42.5520660877 0 -0 0
