TITLE = "B00090"
VARIABLES = "x", "y", "Vx", "Vy", "isValid"
ZONE T="Frame 0", I=25, J=25, F=POINT
-35.0547683239 35.2574698925 0 -0 0
-31.8127043247 35.2574698925 0 -0 0
-28.5706403255 35.2574698925 0 -0 0
-25.3285763264 35.2574698925 0 -0 0
-22.0865123272 35.2574698925 0 -0 0
-18.844448328 35.2574698925 0 -0 0
-15.6023843288 35.2574698925 0 -0 0
-12.3603203297 35.2574698925 0 -0 0
-9.1182563305 35.2574698925 0 -0 0
-5.8761923313 35.2574698925 0 -0 0
-2.6341283321 35.2574698925 0 -0 0
0.607935667 35.2574698925 0 -0 0
3.8499996662 35.2574698925 0 -0 0
7.0920636654 35.2574698925 0 -0 0
10.3341276646 35.2574698925 0 -0 0
13.5761916637 35.2574698925 0 -0 0
16.8182556629 35.2574698925 0 -0 0
20.0603196621 35.2574698925 0 -0 0
23.3023836613 35.2574698925 0 -0 0
26.5444476604 35.2574698925 0 -0 0
29.7865116596 35.2574698925 0 -0 0
33.0285756588 35.2574698925 0 -0 0
36.270639658 35.2574698925 0 -0 0
39.5127036572 35.2574698925 0 -0 0
42.7547676563 35.2574698925 0 -0 0
-35.0547683239 32.0154058933 0 -0 0
-31.8127043247 32.0154058933 0 -0 0
-28.5706403255 32.0154058933 0 -0 0
-25.3285763264 32.0154058933 0 -0 0
-22.0865123272 32.0154058933 0 -0 0
-18.844448328 32.0154058933 0 -0 0
-15.6023843288 32.0154058933 0 -0 0
-12.3603203297 32.0154058933 0 -0 0
-9.1182563305 32.0154058933 0 -0 0
-5.8761923313 32.0154058933 0 -0 0
-2.6341283321 32.0154058933 0 -0 0
0.607935667 32.0154058933 0 -0 0
3.8499996662 32.0154058933 0 -0 0
7.0920636654 32.0154058933 0 -0 0
10.3341276646 32.0154058933 0 -0 0
13.5761916637 32.0154058933 0 -0 0
16.8182556629 32.0154058933 0 -0 0
20.0603196621 32.0154058933 0 -0 0
23.3023836613 32.0154058933 0 -0 0
26.5444476604 32.0154058933 0 -0 0
29.7865116596 32.0154058933 0 -0 0
33.0285756588 32.0154058933 0 -0 0
36.270639658 32.0154058933 0 -0 0
39.5127036572 32.0154058933 0 -0 0
42.7547676563 32.0154058933 0 -0 0
-35.0547683239 28.7733418941 0 -0 0
-31.8127043247 28.7733418941 0 -0 0
-28.5706403255 28.7733418941 0 -0 0
-25.3285763264 28.7733418941 0 -0 0
-22.0865123272 28.7733418941 0 -0 0
-18.844448328 28.7733418941 0 -0 0
-15.6023843288 28.7733418941 0 -0 0
-12.3603203297 28.7733418941 0 -0 0
-9.1182563305 28.7733418941 0 -0 0
-5.8761923313 28.7733418941 0 -0 0
-2.6341283321 28.7733418941 0 -0 0
0.607935667 28.7733418941 0 -0 0
3.8499996662 28.7733418941 0 -0 0
7.0920636654 28.7733418941 0 -0 0
10.3341276646 28.7733418941 0 -0 0
13.5761916637 28.7733418941 0 -0 0
16.8182556629 28.7733418941 0 -0 0
20.0603196621 28.7733418941 0 -0 0
23.3023836613 28.7733418941 0 -0 0
26.5444476604 28.7733418941 0 -0 0
29.7865116596 28.7733418941 0 -0 0
33.0285756588 28.7733418941 0 -0 0
36.270639658 28.7733418941 0 -0 0
39.5127036572 28.7733418941 0 -0 0
42.7547676563 28.7733418941 0 -0 0
-35.0547683239 25.531277895 0 -0 0
-31.8127043247 25.531277895 0 -0 0
-28.5706403255 25.531277895 0 -0 0
-25.3285763264 25.531277895 0 -0 0
-22.0865123272 25.531277895 0 -0 0
-18.844448328 25.531277895 0 -0 0
-15.6023843288 25.531277895 0 -0 0
-12.3603203297 25.531277895 0 -0 0
-9.1182563305 25.531277895 10.205044733 0.2373889158 1
-5.8761923313 25.531277895 9.1363520892 -0.9853497556 1
-2.6341283321 25.531277895 6.1417570687 -2.4527829122 1
0.607935667 25.531277895 2.8319978237 -3.4800755566 1
3.8499996662 25.531277895 0.8191874692 -3.4832483497 1
7.0920636654 25.531277895 0.4969777974 -2.2840981373 1
10.3341276646 25.531277895 0.4165740759 -1.0147131897 1
13.5761916637 25.531277895 -0.6011674661 -0.7879864993 1
16.8182556629 25.531277895 0 -0 0
20.0603196621 25.531277895 0 -0 0
23.3023836613 25.531277895 0 -0 0
26.5444476604 25.531277895 0 -0 0
29.7865116596 25.531277895 0 -0 0
33.0285756588 25.531277895 0 -0 0
36.270639658 25.531277895 0 -0 0
39.5127036572 25.531277895 0 -0 0
42.7547676563 25.531277895 0 -0 0
-35.0547683239 22.2892138958 0 -0 0
-31.8127043247 22.2892138958 0 -0 0
-28.5706403255 22.2892138958 0 -0 0
-25.3285763264 22.2892138958 0 -0 0
-22.0865123272 22.2892138958 0 -0 0
-18.844448328 22.2892138958 0 -0 0
-15.6023843288 22.2892138958 4.4478478326 2.8164059064 1
-12.3603203297 22.2892138958 5.9333364409 1.6997185758 1
-9.1182563305 22.2892138958 6.8822552358 0.5561324023 1
-5.8761923313 22.2892138958 6.513535482 -1.1775806235 1
-2.6341283321 22.2892138958 4.3657163307 -2.1757769004 1
0.607935667 22.2892138958 2.4565124841 -2.0509038765 1
3.8499996662 22.2892138958 2.1408257511 -1.7113775642 1
7.0920636654 22.2892138958 3.3787107321 -1.2196300973 1
10.3341276646 22.2892138958 3.4483038432 -0.9688556394 1
13.5761916637 22.2892138958 1.972524894 -1.3481381857 1
16.8182556629 22.2892138958 0.0019130965 -2.717159498 1
20.0603196621 22.2892138958 -0.8656245947 -4.368771065 1
23.3023836613 22.2892138958 0 -0 0
26.5444476604 22.2892138958 0 -0 0
29.7865116596 22.2892138958 0 -0 0
33.0285756588 22.2892138958 0 -0 0
36.270639658 22.2892138958 0 -0 0
39.5127036572 22.2892138958 0 -0 0
42.7547676563 22.2892138958 0 -0 0
-35.0547683239 19.0471498966 0 -0 0
-31.8127043247 19.0471498966 0 -0 0
-28.5706403255 19.0471498966 0 -0 0
-25.3285763264 19.0471498966 0 -0 0
-22.0865123272 19.0471498966 0 -0 0
-18.844448328 19.0471498966 6.4297396828 1.8200982687 1
-15.6023843288 19.0471498966 4.8637455235 2.0742919035 1
-12.3603203297 19.0471498966 3.877228163 1.1207503205 1
-9.1182563305 19.0471498966 3.0227054006 -0.5475814409 1
-5.8761923313 19.0471498966 1.9929913425 -2.1172029652 1
-2.6341283321 19.0471498966 0.5885895589 -2.2090746222 1
0.607935667 19.0471498966 -0.2457545235 -0.7674887999 1
3.8499996662 19.0471498966 0.5283581578 0.0578115867 1
7.0920636654 19.0471498966 3.0127941961 0.1299080554 1
10.3341276646 19.0471498966 4.8366170547 -0.4686721372 1
13.5761916637 19.0471498966 5.1055671368 -1.380521329 1
16.8182556629 19.0471498966 3.8831371431 -3.2009582242 1
20.0603196621 19.0471498966 2.1151772448 -4.5728002669 1
23.3023836613 19.0471498966 0.3614807625 -5.2300693775 1
26.5444476604 19.0471498966 0 -0 0
29.7865116596 19.0471498966 0 -0 0
33.0285756588 19.0471498966 0 -0 0
36.270639658 19.0471498966 0 -0 0
39.5127036572 19.0471498966 0 -0 0
42.7547676563 19.0471498966 0 -0 0
-35.0547683239 15.8050858974 0 -0 0
-31.8127043247 15.8050858974 0 -0 0
-28.5706403255 15.8050858974 0 -0 0
-25.3285763264 15.8050858974 0 -0 0
-22.0865123272 15.8050858974 9.82528663 -0.3840435477 1
-18.844448328 15.8050858974 8.5450941669 -0.5232937814 1
-15.6023843288 15.8050858974 6.2837597941 -0.6139085724 1
-12.3603203297 15.8050858974 3.5843009675 -1.8859846045 1
-9.1182563305 15.8050858974 0.6115875162 -3.2301507598 1
-5.8761923313 15.8050858974 -1.354148014 -4.0158343572 1
-2.6341283321 15.8050858974 -2.0453298996 -2.9104658787 1
0.607935667 15.8050858974 -2.1249735609 -0.9035140047 1
3.8499996662 15.8050858974 -1.090084918 0.7462192645 1
7.0920636654 15.8050858974 1.2945630303 1.3223661856 1
10.3341276646 15.8050858974 4.3878467746 0.5589419608 1
13.5761916637 15.8050858974 6.9975506997 -1.0079935742 1
16.8182556629 15.8050858974 7.3794441275 -3.857075129 1
20.0603196621 15.8050858974 5.5891680918 -6.7454018076 1
23.3023836613 15.8050858974 3.2245938426 -8.6187743478 1
26.5444476604 15.8050858974 1.6534891854 -8.9773911647 1
29.7865116596 15.8050858974 0 -0 0
33.0285756588 15.8050858974 0 -0 0
36.270639658 15.8050858974 0 -0 0
39.5127036572 15.8050858974 0 -0 0
42.7547676563 15.8050858974 0 -0 0
-35.0547683239 12.5630218983 0 -0 0
-31.8127043247 12.5630218983 0 -0 0
-28.5706403255 12.5630218983 0 -0 0
-25.3285763264 12.5630218983 0 -0 0
-22.0865123272 12.5630218983 8.5076873337 -0.9683574372 1
-18.844448328 12.5630218983 8.5408355948 -2.410424251 1
-15.6023843288 12.5630218983 7.1544421225 -3.7203844468 1
-12.3603203297 12.5630218983 4.5421997817 -5.2866862838 1
-9.1182563305 12.5630218983 0.7011595171 -6.1374344852 1
-5.8761923313 12.5630218983 -1.8288000496 -5.814347034 1
-2.6341283321 12.5630218983 -2.0254516316 -4.4122037294 1
0.607935667 12.5630218983 -1.1488305065 -3.1869931635 1
3.8499996662 12.5630218983 0.1163016626 -1.4702694368 1
7.0920636654 12.5630218983 1.4641886524 -0.0795169594 1
10.3341276646 12.5630218983 4.4808176467 -0.052828088 1
13.5761916637 12.5630218983 8.0365939715 -1.5934419305 1
16.8182556629 12.5630218983 10.04563754 -5.4145098725 1
20.0603196621 12.5630218983 8.8075609777 -10.2354767353 1
23.3023836613 12.5630218983 5.962653678 -13.7224911918 1
26.5444476604 12.5630218983 3.5437530449 -14.0038552651 1
29.7865116596 12.5630218983 3.1833650437 -12.9478272233 1
33.0285756588 12.5630218983 0 -0 0
36.270639658 12.5630218983 0 -0 0
39.5127036572 12.5630218983 0 -0 0
42.7547676563 12.5630218983 0 -0 0
-35.0547683239 9.3209578991 0 -0 0
-31.8127043247 9.3209578991 0 -0 0
-28.5706403255 9.3209578991 0 -0 0
-25.3285763264 9.3209578991 5.6025621826 2.1618972889 1
-22.0865123272 9.3209578991 5.7256827425 -0.6568383922 1
-18.844448328 9.3209578991 6.0805397934 -3.5398489513 1
-15.6023843288 9.3209578991 5.8262181358 -6.0811708496 1
-12.3603203297 9.3209578991 4.1403616589 -7.8328715415 1
-9.1182563305 9.3209578991 0.7637742496 -7.9941000409 1
-5.8761923313 9.3209578991 -1.4189550626 -7.3446436467 1
-2.6341283321 9.3209578991 -1.1976005016 -7.0228352165 1
0.607935667 9.3209578991 0.4359584065 -7.3932029627 1
3.8499996662 9.3209578991 2.1205525447 -6.4794282572 1
7.0920636654 9.3209578991 3.8343649589 -4.9131131348 1
10.3341276646 9.3209578991 6.2488753738 -3.8746580435 1
13.5761916637 9.3209578991 9.5659678533 -4.4386178064 1
16.8182556629 9.3209578991 11.7373963543 -7.5787262172 1
20.0603196621 9.3209578991 11.2856628278 -12.8816575162 1
23.3023836613 9.3209578991 8.394117763 -17.2340377287 1
26.5444476604 9.3209578991 5.5303729851 -17.6050371349 1
29.7865116596 9.3209578991 4.5188368157 -15.6779813446 1
33.0285756588 9.3209578991 0 -0 0
36.270639658 9.3209578991 0 -0 0
39.5127036572 9.3209578991 0 -0 0
42.7547676563 9.3209578991 0 -0 0
-35.0547683239 6.0788938999 0 -0 0
-31.8127043247 6.0788938999 0 -0 0
-28.5706403255 6.0788938999 0 -0 0
-25.3285763264 6.0788938999 3.6576399553 4.1756050868 1
-22.0865123272 6.0788938999 2.7684867047 -0.3385193022 1
-18.844448328 6.0788938999 2.8261350406 -4.5111007923 1
-15.6023843288 6.0788938999 2.9532433317 -7.0778385515 1
-12.3603203297 6.0788938999 2.3169637819 -7.8537054518 1
-9.1182563305 6.0788938999 0.2507745334 -7.6875172739 1
-5.8761923313 6.0788938999 -1.1952794832 -7.5813241152 1
-2.6341283321 6.0788938999 -0.8603780726 -8.3989162051 1
0.607935667 6.0788938999 1.0963781932 -10.0496159111 1
3.8499996662 6.0788938999 3.2254335398 -10.6297932125 1
7.0920636654 6.0788938999 5.6589031151 -9.9602456821 1
10.3341276646 6.0788938999 7.5630089944 -8.1515603201 1
13.5761916637 6.0788938999 10.0525229964 -7.2355989598 1
16.8182556629 6.0788938999 11.9342496327 -8.7607215161 1
20.0603196621 6.0788938999 11.6716614418 -12.5877520327 1
23.3023836613 6.0788938999 9.619740478 -15.9583598834 1
26.5444476604 6.0788938999 7.238669697 -16.4566164375 1
29.7865116596 6.0788938999 6.4819639554 -15.5697778645 1
33.0285756588 6.0788938999 6.1919311637 -15.0636853445 1
36.270639658 6.0788938999 0 -0 0
39.5127036572 6.0788938999 0 -0 0
42.7547676563 6.0788938999 0 -0 0
-35.0547683239 2.8368299007 0 -0 0
-31.8127043247 2.8368299007 0 -0 0
-28.5706403255 2.8368299007 3.0049935573 9.0006949502 1
-25.3285763264 2.8368299007 1.979524484 5.4561921865 1
-22.0865123272 2.8368299007 0.1872558659 0.0973596467 1
-18.844448328 2.8368299007 -0.3988838214 -4.1871174829 1
-15.6023843288 2.8368299007 -0.1993979028 -5.9523321361 1
-12.3603203297 2.8368299007 0.0483513119 -5.7954389016 1
-9.1182563305 2.8368299007 -0.5547743484 -5.7811909225 1
-5.8761923313 2.8368299007 -1.1246108592 -6.4889997783 1
-2.6341283321 2.8368299007 -0.27718427 -7.7729858248 1
0.607935667 2.8368299007 1.803326367 -9.5939535318 1
3.8499996662 2.8368299007 3.8500646691 -10.9703497466 1
7.0920636654 2.8368299007 6.2223776592 -11.0244164615 1
10.3341276646 2.8368299007 7.492042053 -9.129496223 1
13.5761916637 2.8368299007 9.3666018241 -7.524625081 1
16.8182556629 2.8368299007 10.5755827738 -8.2449004658 1
20.0603196621 2.8368299007 10.5113466951 -10.3949908153 1
23.3023836613 2.8368299007 9.8768556912 -12.0885328915 1
26.5444476604 2.8368299007 9.0883567985 -12.6454649839 1
29.7865116596 2.8368299007 8.8602774136 -14.0585198226 1
33.0285756588 2.8368299007 7.9554304916 -15.7253184045 1
36.270639658 2.8368299007 0 -0 0
39.5127036572 2.8368299007 0 -0 0
42.7547676563 2.8368299007 0 -0 0
-35.0547683239 -0.4052340984 0 -0 0
-31.8127043247 -0.4052340984 0 -0 0
-28.5706403255 -0.4052340984 1.4444995503 8.8579579049 1
-25.3285763264 -0.4052340984 -0.0527250224 5.9077898396 1
-22.0865123272 -0.4052340984 -2.3423923244 1.0735047486 1
-18.844448328 -0.4052340984 -3.5014840601 -2.6785198409 1
-15.6023843288 -0.4052340984 -2.9268830001 -3.8137565983 1
-12.3603203297 -0.4052340984 -1.6663498979 -3.5208448017 1
-9.1182563305 -0.4052340984 -0.9685893276 -3.743287859 1
-5.8761923313 -0.4052340984 -0.7212760163 -4.4611175238 1
-2.6341283321 -0.4052340984 0.5885595158 -5.1088220579 1
0.607935667 -0.4052340984 2.7410357632 -6.6148027797 1
3.8499996662 -0.4052340984 4.5523857522 -8.9827566514 1
7.0920636654 -0.4052340984 5.93670308 -10.3639694247 1
10.3341276646 -0.4052340984 6.2801419403 -8.923409597 1
13.5761916637 -0.4052340984 7.5676963223 -7.4952607412 1
16.8182556629 -0.4052340984 8.43189236 -8.2071107717 1
20.0603196621 -0.4052340984 8.4141050316 -9.6474900388 1
23.3023836613 -0.4052340984 8.1775984809 -9.7284602767 1
26.5444476604 -0.4052340984 8.2251662235 -10.0719311427 1
29.7865116596 -0.4052340984 8.528369066 -13.341417835 1
33.0285756588 -0.4052340984 7.7060956871 -16.9625555716 1
36.270639658 -0.4052340984 0 -0 0
39.5127036572 -0.4052340984 0 -0 0
42.7547676563 -0.4052340984 0 -0 0
-35.0547683239 -3.6472980976 0 -0 0
-31.8127043247 -3.6472980976 0 -0 0
-28.5706403255 -3.6472980976 -0.5488704636 7.2948349 1
-25.3285763264 -3.6472980976 -1.8863389319 4.9464407487 1
-22.0865123272 -3.6472980976 -3.9285746939 1.676961152 1
-18.844448328 -3.6472980976 -5.224804135 -0.4890613266 1
-15.6023843288 -3.6472980976 -4.1875039671 -1.0628592998 1
-12.3603203297 -3.6472980976 -2.2007994835 -1.3930262043 1
-9.1182563305 -3.6472980976 -1.0303924434 -2.1282156495 1
-5.8761923313 -3.6472980976 -0.4708042539 -2.7230621374 1
-2.6341283321 -3.6472980976 1.2381426874 -2.9832861324 1
0.607935667 -3.6472980976 3.3475151217 -4.5772240005 1
3.8499996662 -3.6472980976 4.7460058493 -8.3932439465 1
7.0920636654 -3.6472980976 5.1773650192 -11.2005940465 1
10.3341276646 -3.6472980976 5.506215915 -10.6294755708 1
13.5761916637 -3.6472980976 6.9226820801 -9.3311527746 1
16.8182556629 -3.6472980976 7.8072240919 -9.8780833822 1
20.0603196621 -3.6472980976 7.3177443509 -10.9291916017 1
23.3023836613 -3.6472980976 5.9726787141 -10.2660101897 1
26.5444476604 -3.6472980976 5.1434812304 -10.3092191159 1
29.7865116596 -3.6472980976 5.1777539188 -14.073811309 1
33.0285756588 -3.6472980976 4.6833455993 -18.206505485 1
36.270639658 -3.6472980976 0 -0 0
39.5127036572 -3.6472980976 0 -0 0
42.7547676563 -3.6472980976 0 -0 0
-35.0547683239 -6.8893620968 0 -0 0
-31.8127043247 -6.8893620968 0 -0 0
-28.5706403255 -6.8893620968 -1.9696147892 5.3248745396 1
-25.3285763264 -6.8893620968 -2.3212215991 3.5752723358 1
-22.0865123272 -6.8893620968 -3.2240548784 1.4923225838 1
-18.844448328 -6.8893620968 -4.4103078435 0.5311408436 1
-15.6023843288 -6.8893620968 -3.6917951888 0.3595805362 1
-12.3603203297 -6.8893620968 -2.0711018997 -0.1225648569 1
-9.1182563305 -6.8893620968 -1.2435148168 -1.1596413434 1
-5.8761923313 -6.8893620968 -0.3146238449 -2.0457550322 1
-2.6341283321 -6.8893620968 1.7675444278 -2.8073972027 1
0.607935667 -6.8893620968 3.8428739506 -4.8800687413 1
3.8499996662 -6.8893620968 4.2951204744 -9.0103256517 1
7.0920636654 -6.8893620968 3.5359046995 -12.4429448818 1
10.3341276646 -6.8893620968 4.2406219842 -12.801580419 1
13.5761916637 -6.8893620968 6.395754442 -12.0096997901 1
16.8182556629 -6.8893620968 8.2155983257 -12.1728842617 1
20.0603196621 -6.8893620968 8.1005570958 -12.7142929772 1
23.3023836613 -6.8893620968 5.7601830942 -11.3371038661 1
26.5444476604 -6.8893620968 3.0662685033 -11.0220081822 1
29.7865116596 -6.8893620968 1.2483029929 -14.2464900048 1
33.0285756588 -6.8893620968 0.3759631609 -18.3959636311 1
36.270639658 -6.8893620968 0 -0 0
39.5127036572 -6.8893620968 0 -0 0
42.7547676563 -6.8893620968 0 -0 0
-35.0547683239 -10.131426096 0 -0 0
-31.8127043247 -10.131426096 0 -0 0
-28.5706403255 -10.131426096 -2.0873881297 3.568174917 1
-25.3285763264 -10.131426096 -1.1214846404 2.1469773406 1
-22.0865123272 -10.131426096 -0.7270818836 0.3250503301 1
-18.844448328 -10.131426096 -2.1513252871 0.1500524653 1
-15.6023843288 -10.131426096 -3.0881930236 0.9033143464 1
-12.3603203297 -10.131426096 -2.7879999263 1.4391016049 1
-9.1182563305 -10.131426096 -1.591365635 0.591634216 1
-5.8761923313 -10.131426096 0.6197230073 -1.4227060723 1
-2.6341283321 -10.131426096 3.0446275053 -3.5677380088 1
0.607935667 -10.131426096 4.183413878 -6.1585733557 1
3.8499996662 -10.131426096 3.0919053849 -9.5203947311 1
7.0920636654 -10.131426096 1.5366308763 -12.5094116986 1
10.3341276646 -10.131426096 2.4552456917 -13.9756769484 1
13.5761916637 -10.131426096 5.2202285252 -13.4291702655 1
16.8182556629 -10.131426096 8.2433158808 -12.6862946172 1
20.0603196621 -10.131426096 9.564288459 -11.8936180725 1
23.3023836613 -10.131426096 7.7070582741 -9.9519386887 1
26.5444476604 -10.131426096 3.5699581789 -9.5821953559 1
29.7865116596 -10.131426096 -0.3124659878 -12.0104329022 1
33.0285756588 -10.131426096 -2.0947639379 -16.02817945 1
36.270639658 -10.131426096 0 -0 0
39.5127036572 -10.131426096 0 -0 0
42.7547676563 -10.131426096 0 -0 0
-35.0547683239 -13.3734900951 0 -0 0
-31.8127043247 -13.3734900951 0 -0 0
-28.5706403255 -13.3734900951 0 -0 0
-25.3285763264 -13.3734900951 -0.1599486105 1.2730024995 1
-22.0865123272 -13.3734900951 0.441787863 -0.1139806159 1
-18.844448328 -13.3734900951 -1.9465702198 0.0044531561 1
-15.6023843288 -13.3734900951 -4.5804037384 1.3791535375 1
-12.3603203297 -13.3734900951 -5.112790163 2.4833044399 1
-9.1182563305 -13.3734900951 -2.5962953412 1.5636912574 1
-5.8761923313 -13.3734900951 1.3839245029 -1.281894805 1
-2.6341283321 -13.3734900951 3.7543971643 -4.1404948148 1
0.607935667 -13.3734900951 3.3933307022 -6.492959429 1
3.8499996662 -13.3734900951 1.1721613157 -8.9066555098 1
7.0920636654 -13.3734900951 -0.0619813174 -12.1434691957 1
10.3341276646 -13.3734900951 1.36199802 -15.0184038971 1
13.5761916637 -13.3734900951 4.3152478435 -14.8729807871 1
16.8182556629 -13.3734900951 8.1594144023 -12.7339263712 1
20.0603196621 -13.3734900951 10.5593178305 -9.8216609257 1
23.3023836613 -13.3734900951 9.3545821675 -7.6079401906 1
26.5444476604 -13.3734900951 4.54048657 -7.3618119966 1
29.7865116596 -13.3734900951 0.097683865 -9.1463747098 1
33.0285756588 -13.3734900951 -1.7616075182 -12.3091162958 1
36.270639658 -13.3734900951 0 -0 0
39.5127036572 -13.3734900951 0 -0 0
42.7547676563 -13.3734900951 0 -0 0
-35.0547683239 -16.6155540943 0 -0 0
-31.8127043247 -16.6155540943 0 -0 0
-28.5706403255 -16.6155540943 0 -0 0
-25.3285763264 -16.6155540943 -0.797410145 1.9960262997 1
-22.0865123272 -16.6155540943 -1.3626163946 0.8391643963 1
-18.844448328 -16.6155540943 -4.2739713379 0.9341257372 1
-15.6023843288 -16.6155540943 -6.826954791 2.5065149258 1
-12.3603203297 -16.6155540943 -6.5169425812 3.558271261 1
-9.1182563305 -16.6155540943 -3.0788850967 2.0261838379 1
-5.8761923313 -16.6155540943 0.6789109389 -1.4081763824 1
-2.6341283321 -16.6155540943 1.4949334653 -4.4105892523 1
0.607935667 -16.6155540943 -0.562323697 -6.5349249634 1
3.8499996662 -16.6155540943 -2.2104981217 -8.6787138099 1
7.0920636654 -16.6155540943 -1.6908508785 -12.002002717 1
10.3341276646 -16.6155540943 0.8531916568 -14.9358786645 1
13.5761916637 -16.6155540943 3.3244441324 -14.7503735264 1
16.8182556629 -16.6155540943 6.8874347271 -11.9184146531 1
20.0603196621 -16.6155540943 9.5899727452 -8.1736992183 1
23.3023836613 -16.6155540943 8.7558494004 -6.0586907583 1
26.5444476604 -16.6155540943 4.351027518 -5.6695827587 1
29.7865116596 -16.6155540943 0.6314048299 -6.5969677446 1
33.0285756588 -16.6155540943 0 -0 0
36.270639658 -16.6155540943 0 -0 0
39.5127036572 -16.6155540943 0 -0 0
42.7547676563 -16.6155540943 0 -0 0
-35.0547683239 -19.8576180935 0 -0 0
-31.8127043247 -19.8576180935 0 -0 0
-28.5706403255 -19.8576180935 0 -0 0
-25.3285763264 -19.8576180935 0 -0 0
-22.0865123272 -19.8576180935 -4.7820922957 1.7976071566 1
-18.844448328 -19.8576180935 -7.0021432182 2.1856192623 1
-15.6023843288 -19.8576180935 -7.8130750994 3.7276609165 1
-12.3603203297 -19.8576180935 -5.9708471417 4.1813739664 1
-9.1182563305 -19.8576180935 -3.3068956391 1.8051793772 1
-5.8761923313 -19.8576180935 -1.877031005 -1.8670426547 1
-2.6341283321 -19.8576180935 -2.7728110998 -4.73782084 1
0.607935667 -19.8576180935 -5.3797112034 -6.7155803294 1
3.8499996662 -19.8576180935 -5.4921714439 -8.5116880484 1
7.0920636654 -19.8576180935 -3.1621573307 -10.665364246 1
10.3341276646 -19.8576180935 0.850559262 -11.8628539354 1
13.5761916637 -19.8576180935 2.8223541387 -11.5430250286 1
16.8182556629 -19.8576180935 5.0057080908 -9.455136885 1
20.0603196621 -19.8576180935 6.6257916106 -6.5486729287 1
23.3023836613 -19.8576180935 6.1520997465 -4.9364329232 1
26.5444476604 -19.8576180935 3.3300674766 -4.5756822912 1
29.7865116596 -19.8576180935 0.8539123138 -5.2777216635 1
33.0285756588 -19.8576180935 0 -0 0
36.270639658 -19.8576180935 0 -0 0
39.5127036572 -19.8576180935 0 -0 0
42.7547676563 -19.8576180935 0 -0 0
-35.0547683239 -23.0996820927 0 -0 0
-31.8127043247 -23.0996820927 0 -0 0
-28.5706403255 -23.0996820927 0 -0 0
-25.3285763264 -23.0996820927 0 -0 0
-22.0865123272 -23.0996820927 -7.4898276197 1.8142424302 1
-18.844448328 -23.0996820927 -8.4974793215 2.2049556977 1
-15.6023843288 -23.0996820927 -7.7210423571 3.3479444814 1
-12.3603203297 -23.0996820927 -5.7938198954 3.8878413797 1
-9.1182563305 -23.0996820927 -4.6984553173 1.8308461509 1
-5.8761923313 -23.0996820927 -4.8190362537 -1.6973631361 1
-2.6341283321 -23.0996820927 -5.9297940722 -4.7837182465 1
0.607935667 -23.0996820927 -7.8353583253 -6.9511901161 1
3.8499996662 -23.0996820927 -7.1530205856 -7.6099372266 1
7.0920636654 -23.0996820927 -4.2849646979 -7.0618230113 1
10.3341276646 -23.0996820927 0.291767611 -5.9035862207 1
13.5761916637 -23.0996820927 2.2879753582 -5.473744605 1
16.8182556629 -23.0996820927 3.0091352783 -5.2428674373 1
20.0603196621 -23.0996820927 3.4551917152 -4.6154771736 1
23.3023836613 -23.0996820927 3.3255863742 -3.8651719716 1
26.5444476604 -23.0996820927 2.7606283953 -3.9029625715 1
29.7865116596 -23.0996820927 0 -0 0
33.0285756588 -23.0996820927 0 -0 0
36.270639658 -23.0996820927 0 -0 0
39.5127036572 -23.0996820927 0 -0 0
42.7547676563 -23.0996820927 0 -0 0
-35.0547683239 -26.3417460918 0 -0 0
-31.8127043247 -26.3417460918 0 -0 0
-28.5706403255 -26.3417460918 0 -0 0
-25.3285763264 -26.3417460918 0 -0 0
-22.0865123272 -26.3417460918 0 -0 0
-18.844448328 -26.3417460918 -7.888030074 0.4824910964 1
-15.6023843288 -26.3417460918 -6.8598584802 0.8497462866 1
-12.3603203297 -26.3417460918 -6.1526535058 1.7662990733 1
-9.1182563305 -26.3417460918 -6.2884447065 1.4800044588 1
-5.8761923313 -26.3417460918 -6.5676752666 -0.4195392471 1
-2.6341283321 -26.3417460918 -6.9955669491 -3.1717164723 1
0.607935667 -26.3417460918 -8.5081970097 -5.3931155602 1
3.8499996662 -26.3417460918 -8.1015426304 -5.8010495643 1
7.0920636654 -26.3417460918 -5.5592844139 -4.4009742517 1
10.3341276646 -26.3417460918 -1.3046544933 -2.5377686598 1
13.5761916637 -26.3417460918 1.089127313 -1.9120164245 1
16.8182556629 -26.3417460918 1.1733830434 -2.5989747633 1
20.0603196621 -26.3417460918 0.9466697894 -3.2385984576 1
23.3023836613 -26.3417460918 1.2019200657 -3.2169864459 1
26.5444476604 -26.3417460918 0 -0 0
29.7865116596 -26.3417460918 0 -0 0
33.0285756588 -26.3417460918 0 -0 0
36.270639658 -26.3417460918 0 -0 0
39.5127036572 -26.3417460918 0 -0 0
42.7547676563 -26.3417460918 0 -0 0
-35.0547683239 -29.583810091 0 -0 0
-31.8127043247 -29.583810091 0 -0 0
-28.5706403255 -29.583810091 0 -0 0
-25.3285763264 -29.583810091 0 -0 0
-22.0865123272 -29.583810091 0 -0 0
-18.844448328 -29.583810091 0 -0 0
-15.6023843288 -29.583810091 -6.0879409646 -1.6568810366 1
-12.3603203297 -29.583810091 -6.9116364843 -0.773797625 1
-9.1182563305 -29.583810091 -7.2613249139 0.2211853987 1
-5.8761923313 -29.583810091 -7.2649826239 -0.2418789443 1
-2.6341283321 -29.583810091 -7.8480114535 -2.0020371848 1
0.607935667 -29.583810091 -9.6465238285 -4.0239976267 1
3.8499996662 -29.583810091 -9.8554740604 -4.9390075718 1
7.0920636654 -29.583810091 -7.4226234636 -4.4784344286 1
10.3341276646 -29.583810091 -3.5082946353 -3.8066926949 1
13.5761916637 -29.583810091 -0.3785354317 -3.5849259848 1
16.8182556629 -29.583810091 0.3170894741 -3.8563459421 1
20.0603196621 -29.583810091 0.1001414456 -3.9713947205 1
23.3023836613 -29.583810091 0 -0 0
26.5444476604 -29.583810091 0 -0 0
29.7865116596 -29.583810091 0 -0 0
33.0285756588 -29.583810091 0 -0 0
36.270639658 -29.583810091 0 -0 0
39.5127036572 -29.583810091 0 -0 0
42.7547676563 -29.583810091 0 -0 0
-35.0547683239 -32.8258740902 0 -0 0
-31.8127043247 -32.8258740902 0 -0 0
-28.5706403255 -32.8258740902 0 -0 0
-25.3285763264 -32.8258740902 0 -0 0
-22.0865123272 -32.8258740902 0 -0 0
-18.844448328 -32.8258740902 0 -0 0
-15.6023843288 -32.8258740902 0 -0 0
-12.3603203297 -32.8258740902 0 -0 0
-9.1182563305 -32.8258740902 -7.2449844854 -1.0420497711 1
-5.8761923313 -32.8258740902 -7.9711012155 -0.9617883391 1
-2.6341283321 -32.8258740902 -10.0860837086 -2.3064203136 1
0.607935667 -32.8258740902 -12.200213521 -4.0446660736 1
3.8499996662 -32.8258740902 -11.6653919444 -5.0271600738 1
7.0920636654 -32.8258740902 -8.7057417324 -5.6404195113 1
10.3341276646 -32.8258740902 -4.8930872178 -6.1517168856 1
13.5761916637 -32.8258740902 -2.0286195938 -6.6545659583 1
16.8182556629 -32.8258740902 -0.2321803816 -6.5661697901 1
20.0603196621 -32.8258740902 0 -0 0
23.3023836613 -32.8258740902 0 -0 0
26.5444476604 -32.8258740902 0 -0 0
29.7865116596 -32.8258740902 0 -0 0
33.0285756588 -32.8258740902 0 -0 0
36.270639658 -32.8258740902 0 -0 0
39.5127036572 -32.8258740902 0 -0 0
42.7547676563 -32.8258740902 0 -0 0
-35.0547683239 -36.0679380894 0 -0 0
-31.8127043247 -36.0679380894 0 -0 0
-28.5706403255 -36.0679380894 0 -0 0
-25.3285763264 -36.0679380894 0 -0 0
-22.0865123272 -36.0679380894 0 -0 0
-18.844448328 -36.0679380894 0 -0 0
-15.6023843288 -36.0679380894 0 -0 0
-12.3603203297 -36.0679380894 0 -0 0
-9.1182563305 -36.0679380894 0 -0 0
-5.8761923313 -36.0679380894 0 -0 0
-2.6341283321 -36.0679380894 0 -0 0
0.607935667 -36.0679380894 0 -0 0
3.8499996662 -36.0679380894 0 -0 0
7.0920636654 -36.0679380894 0 -0 0
10.3341276646 -36.0679380894 0 -0 0
13.5761916637 -36.0679380894 0 -0 0
16.8182556629 -36.0679380894 0 -0 0
20.0603196621 -36.0679380894 0 -0 0
23.3023836613 -36.0679380894 0 -0 0
26.5444476604 -36.0679380894 0 -0 0
29.7865116596 -36.0679380894 0 -0 0
33.0285756588 -36.0679380894 0 -0 0
36.270639658 -36.0679380894 0 -0 0
39.5127036572 -36.0679380894 0 -0 0
42.7547676563 -36.0679380894 0 -0 0
-35.0547683239 -39.3100020885 0 -0 0
-31.8127043247 -39.3100020885 0 -0 0
-28.5706403255 -39.3100020885 0 -0 0
-25.3285763264 -39.3100020885 0 -0 0
-22.0865123272 -39.3100020885 0 -0 0
-18.844448328 -39.3100020885 0 -0 0
-15.6023843288 -39.3100020885 0 -0 0
-12.3603203297 -39.3100020885 0 -0 0
-9.1182563305 -39.3100020885 0 -0 0
-5.8761923313 -39.3100020885 0 -0 0
-2.6341283321 -39.3100020885 0 -0 0
0.607935667 -39.3100020885 0 -0 0
3.8499996662 -39.3100020885 0 -0 0
7.0920636654 -39.3100020885 0 -0 0
10.3341276646 -39.3100020885 0 -0 0
13.5761916637 -39.3100020885 0 -0 0
16.8182556629 -39.3100020885 0 -0 0
20.0603196621 -39.3100020885 0 -0 0
23.3023836613 -39.3100020885 0 -0 0
26.5444476604 -39.3100020885 0 -0 0
29.7865116596 -39.3100020885 0 -0 0
33.0285756588 -39.3100020885 0 -0 0
36.270639658 -39.3100020885 0 -0 0
39.5127036572 -39.3100020885 0 -0 0
42.7547676563 -39.3100020885 0 -0 0
-35.0547683239 -42.5520660877 0 -0 0
-31.8127043247 -42.5520660877 0 -0 0
-28.5706403255 -42.5520660877 0 -0 0
-25.3285763264 -42.5520660877 0 -0 0
-22.0865123272 -42.5520660877 0 -0 0
-18.844448328 -42.5520660877 0 -0 0
-15.6023843288 -42.5520660877 0 -0 0
-12.3603203297 -42.5520660877 0 -0 0
-9.1182563305 -42.5520660877 0 -0 0
-5.8761923313 -42.5520660877 0 -0 0
-2.6341283321 -42.5520660877 0 -0 0
0.607935667 -42.5520660877 0 -0 0
3.8499996662 -42.5520660877 0 -0 0
7.0920636654 -42.5520660877 0 -0 0
10.3341276646 -42.5520660877 0 -0 0
13.5761916637 -42.5520660877 0 -0 0
16.8182556629 -42.5520660877 0 -0 0
20.0603196621 -42.5520660877 0 -0 0
23.3023836613 -42.5520660877 0 -0 0
26.5444476604 -42.5520660877 0 -0 0
29.7865116596 -42.5520660877 0 -0 0
33.0285756588 -42.5520660877 0 -0 0
36.270639658 -42.5520660877 0 -0 0
39.5127036572 -42.5520660877 0 -0 0
42.7547676563 -42.5520660877 0 -0 0
