TITLE = "B00090"
VARIABLES = "x", "y", "Vx", "Vy", "isValid"
ZONE T="Frame 0", I=25, J=25, F=POINT
-35.0547683239 35.2574698925 0 -0 0
-31.8127043247 35.2574698925 0 -0 0
-28.5706403255 35.2574698925 0 -0 0
-25.3285763264 35.2574698925 0 -0 0
-22.0865123272 35.2574698925 0 -0 0
-18.844448328 35.2574698925 0 -0 0
-15.6023843288 35.2574698925 0 -0 0
-12.3603203297 35.2574698925 0 -0 0
-9.1182563305 35.2574698925 0 -0 0
-5.8761923313 35.2574698925 0 -0 0
-2.6341283321 35.2574698925 0 -0 0
0.607935667 35.2574698925 0 -0 0
3.8499996662 35.2574698925 0 -0 0
7.0920636654 35.2574698925 0 -0 0
10.3341276646 35.2574698925 0 -0 0
13.5761916637 35.2574698925 0 -0 0
16.8182556629 35.2574698925 0 -0 0
20.0603196621 35.2574698925 0 -0 0
23.3023836613 35.2574698925 0 -0 0
26.5444476604 35.2574698925 0 -0 0
29.7865116596 35.2574698925 0 -0 0
33.0285756588 35.2574698925 0 -0 0
36.270639658 35.2574698925 0 -0 0
39.5127036572 35.2574698925 0 -0 0
42.7547676563 35.2574698925 0 -0 0
-35.0547683239 32.0154058933 0 -0 0
-31.8127043247 32.0154058933 0 -0 0
-28.5706403255 32.0154058933 0 -0 0
-25.3285763264 32.0154058933 0 -0 0
-22.0865123272 32.0154058933 0 -0 0
-18.844448328 32.0154058933 0 -0 0
-15.6023843288 32.0154058933 0 -0 0
-12.3603203297 32.0154058933 0 -0 0
-9.1182563305 32.0154058933 0 -0 0
-5.8761923313 32.0154058933 0 -0 0
-2.6341283321 32.0154058933 0 -0 0
0.607935667 32.0154058933 0 -0 0
3.8499996662 32.0154058933 0 -0 0
7.0920636654 32.0154058933 0 -0 0
10.3341276646 32.0154058933 0 -0 0
13.5761916637 32.0154058933 0 -0 0
16.8182556629 32.0154058933 0 -0 0
20.0603196621 32.0154058933 0 -0 0
23.3023836613 32.0154058933 0 -0 0
26.5444476604 32.0154058933 0 -0 0
29.7865116596 32.0154058933 0 -0 0
33.0285756588 32.0154058933 0 -0 0
36.270639658 32.0154058933 0 -0 0
39.5127036572 32.0154058933 0 -0 0
42.7547676563 32.0154058933 0 -0 0
-35.0547683239 28.7733418941 0 -0 0
-31.8127043247 28.7733418941 0 -0 0
-28.5706403255 28.7733418941 0 -0 0
-25.3285763264 28.7733418941 0 -0 0
-22.0865123272 28.7733418941 0 -0 0
-18.844448328 28.7733418941 0 -0 0
-15.6023843288 28.7733418941 0 -0 0
-12.3603203297 28.7733418941 0 -0 0
-9.1182563305 28.7733418941 0 -0 0
-5.8761923313 28.7733418941 0 -0 0
-2.6341283321 28.7733418941 0 -0 0
0.607935667 28.7733418941 0 -0 0
3.8499996662 28.7733418941 0 -0 0
7.0920636654 28.7733418941 0 -0 0
10.3341276646 28.7733418941 0 -0 0
13.5761916637 28.7733418941 0 -0 0
16.8182556629 28.7733418941 0 -0 0
20.0603196621 28.7733418941 0 -0 0
23.3023836613 28.7733418941 0 -0 0
26.5444476604 28.7733418941 0 -0 0
29.7865116596 28.7733418941 0 -0 0
33.0285756588 28.7733418941 0 -0 0
36.270639658 28.7733418941 0 -0 0
39.5127036572 28.7733418941 0 -0 0
42.7547676563 28.7733418941 0 -0 0
-35.0547683239 25.531277895 0 -0 0
-31.8127043247 25.531277895 0 -0 0
-28.5706403255 25.531277895 0 -0 0
-25.3285763264 25.531277895 0 -0 0
-22.0865123272 25.531277895 0 -0 0
-18.844448328 25.531277895 0 -0 0
-15.6023843288 25.531277895 0 -0 0
-12.3603203297 25.531277895 0 -0 0
-9.1182563305 25.531277895 -0.8056572786 1.0964699832 1
-5.8761923313 25.531277895 -0.5430918087 1.8325386797 1
-2.6341283321 25.531277895 0.4345874447 1.6695165013 1
0.607935667 25.531277895 1.6825093129 -0.1657329834 1
3.8499996662 25.531277895 2.5027187759 -3.17350064 1
7.0920636654 25.531277895 1.9660968777 -4.1360840646 1
10.3341276646 25.531277895 1.8868010522 -3.8243544159 1
13.5761916637 25.531277895 3.0127784952 -3.7379525663 1
16.8182556629 25.531277895 4.9385585859 -4.5901980918 1
20.0603196621 25.531277895 0 -0 0
23.3023836613 25.531277895 0 -0 0
26.5444476604 25.531277895 0 -0 0
29.7865116596 25.531277895 0 -0 0
33.0285756588 25.531277895 0 -0 0
36.270639658 25.531277895 0 -0 0
39.5127036572 25.531277895 0 -0 0
42.7547676563 25.531277895 0 -0 0
-35.0547683239 22.2892138958 0 -0 0
-31.8127043247 22.2892138958 0 -0 0
-28.5706403255 22.2892138958 0 -0 0
-25.3285763264 22.2892138958 0 -0 0
-22.0865123272 22.2892138958 0 -0 0
-18.844448328 22.2892138958 0 -0 0
-15.6023843288 22.2892138958 -2.3102385051 -2.2130840931 1
-12.3603203297 22.2892138958 -0.5259437265 -2.7611564896 1
-9.1182563305 22.2892138958 0.0478220428 -1.3887116223 1
-5.8761923313 22.2892138958 -0.3563340695 0.6319208844 1
-2.6341283321 22.2892138958 -0.3324579553 1.2180004477 1
0.607935667 22.2892138958 0.6076496807 -0.7612320596 1
3.8499996662 22.2892138958 1.0869630018 -2.9086880517 1
7.0920636654 22.2892138958 0.7538072615 -2.7108513523 1
10.3341276646 22.2892138958 1.1057804765 -1.8273421288 1
13.5761916637 22.2892138958 3.257389135 -2.0880620615 1
16.8182556629 22.2892138958 5.5987474634 -2.8209304882 1
20.0603196621 22.2892138958 6.7143834364 -2.7436164506 1
23.3023836613 22.2892138958 0 -0 0
26.5444476604 22.2892138958 0 -0 0
29.7865116596 22.2892138958 0 -0 0
33.0285756588 22.2892138958 0 -0 0
36.270639658 22.2892138958 0 -0 0
39.5127036572 22.2892138958 0 -0 0
42.7547676563 22.2892138958 0 -0 0
-35.0547683239 19.0471498966 0 -0 0
-31.8127043247 19.0471498966 0 -0 0
-28.5706403255 19.0471498966 0 -0 0
-25.3285763264 19.0471498966 0 -0 0
-22.0865123272 19.0471498966 0 -0 0
-18.844448328 19.0471498966 -3.6438633057 3.2813339408 1
-15.6023843288 19.0471498966 -0.0093256742 -1.5402774145 1
-12.3603203297 19.0471498966 2.4449200736 -3.9616190874 1
-9.1182563305 19.0471498966 2.6801322044 -2.4275304011 1
-5.8761923313 19.0471498966 1.7816639312 0.4902293466 1
-2.6341283321 19.0471498966 0.9355105884 1.3575942145 1
0.607935667 19.0471498966 1.0889340709 -0.3930328894 1
3.8499996662 19.0471498966 0.7487013683 -1.7188151192 1
7.0920636654 19.0471498966 0.5921924666 -0.9158686645 1
10.3341276646 19.0471498966 1.3899536554 -0.4489013224 1
13.5761916637 19.0471498966 3.8910558407 -1.3851053931 1
16.8182556629 19.0471498966 6.2813358139 -2.4888011199 1
20.0603196621 19.0471498966 6.9021555454 -2.0119891513 1
23.3023836613 19.0471498966 5.9233500532 -0.5221003607 1
26.5444476604 19.0471498966 0 -0 0
29.7865116596 19.0471498966 0 -0 0
33.0285756588 19.0471498966 0 -0 0
36.270639658 19.0471498966 0 -0 0
39.5127036572 19.0471498966 0 -0 0
42.7547676563 19.0471498966 0 -0 0
-35.0547683239 15.8050858974 0 -0 0
-31.8127043247 15.8050858974 0 -0 0
-28.5706403255 15.8050858974 0 -0 0
-25.3285763264 15.8050858974 0 -0 0
-22.0865123272 15.8050858974 -5.8665465475 12.0821353713 1
-18.844448328 15.8050858974 -3.1863919995 6.0268281608 1
-15.6023843288 15.8050858974 1.6070203561 -0.6086373666 1
-12.3603203297 15.8050858974 4.6626391079 -4.5095699528 1
-9.1182563305 15.8050858974 5.1697084061 -3.3516290641 1
-5.8761923313 15.8050858974 4.5468140399 0.4672292757 1
-2.6341283321 15.8050858974 3.0968200741 1.8904657069 1
0.607935667 15.8050858974 2.5585850576 1.0483210046 1
3.8499996662 15.8050858974 1.3638896787 0.8256933106 1
7.0920636654 15.8050858974 0.9467465578 1.3901040219 1
10.3341276646 15.8050858974 1.9617010736 0.8306896748 1
13.5761916637 15.8050858974 4.5287395658 -1.5717043115 1
16.8182556629 15.8050858974 6.5811677901 -3.294573136 1
20.0603196621 15.8050858974 6.9559583641 -2.3318606317 1
23.3023836613 15.8050858974 6.2641113031 -0.1619132256 1
26.5444476604 15.8050858974 5.2361069843 0.9647706832 1
29.7865116596 15.8050858974 0 -0 0
33.0285756588 15.8050858974 0 -0 0
36.270639658 15.8050858974 0 -0 0
39.5127036572 15.8050858974 0 -0 0
42.7547676563 15.8050858974 0 -0 0
-35.0547683239 12.5630218983 0 -0 0
-31.8127043247 12.5630218983 0 -0 0
-28.5706403255 12.5630218983 0 -0 0
-25.3285763264 12.5630218983 0 -0 0
-22.0865123272 12.5630218983 -3.8622162738 10.567843429 1
-18.844448328 12.5630218983 -3.8523364712 6.1501800073 1
-15.6023843288 12.5630218983 -0.5396456459 0.6881027696 1
-12.3603203297 12.5630218983 2.5572752387 -3.22069458 1
-9.1182563305 12.5630218983 4.0672430878 -3.0048196395 1
-5.8761923313 12.5630218983 4.7761020935 0.5283388336 1
-2.6341283321 12.5630218983 3.7419608295 2.9572929608 1
0.607935667 12.5630218983 2.9672491544 3.3237698988 1
3.8499996662 12.5630218983 1.3733112863 3.4746747427 1
7.0920636654 12.5630218983 0.8636117068 2.7472001852 1
10.3341276646 12.5630218983 2.0878001279 0.8068113715 1
13.5761916637 12.5630218983 4.6461899808 -2.5313786881 1
16.8182556629 12.5630218983 6.3070816961 -4.2537603312 1
20.0603196621 12.5630218983 6.3728679385 -3.0606107379 1
23.3023836613 12.5630218983 5.6665766368 -1.4440851366 1
26.5444476604 12.5630218983 4.5466633715 -1.7111885493 1
29.7865116596 12.5630218983 3.5858952146 -3.8212157421 1
33.0285756588 12.5630218983 0 -0 0
36.270639658 12.5630218983 0 -0 0
39.5127036572 12.5630218983 0 -0 0
42.7547676563 12.5630218983 0 -0 0
-35.0547683239 9.3209578991 0 -0 0
-31.8127043247 9.3209578991 0 -0 0
-28.5706403255 9.3209578991 0 -0 0
-25.3285763264 9.3209578991 2.3625871772 7.0215966556 1
-22.0865123272 9.3209578991 0.8424215819 7.0065775198 1
-18.844448328 9.3209578991 -2.0297394919 4.6508643252 1
-15.6023843288 9.3209578991 -2.2688702095 1.2245792833 1
-12.3603203297 9.3209578991 -0.6276266078 -2.6821591325 1
-9.1182563305 9.3209578991 1.7661444796 -3.6289679655 1
-5.8761923313 9.3209578991 3.0716877355 -0.402244082 1
-2.6341283321 9.3209578991 2.2515170719 3.6652159502 1
0.607935667 9.3209578991 1.4208187917 4.9183412385 1
3.8499996662 9.3209578991 0.2832649601 3.7333531031 1
7.0920636654 9.3209578991 0.1986292183 1.1648588792 1
10.3341276646 9.3209578991 1.7242989667 -0.880924007 1
13.5761916637 9.3209578991 3.8138018894 -2.7535814006 1
16.8182556629 9.3209578991 4.898639304 -3.2374852021 1
20.0603196621 9.3209578991 4.4526622775 -2.7811999192 1
23.3023836613 9.3209578991 3.3597645551 -3.7614891482 1
26.5444476604 9.3209578991 2.0777987941 -6.4663348993 1
29.7865116596 9.3209578991 1.4750331557 -9.9146447814 1
33.0285756588 9.3209578991 0 -0 0
36.270639658 9.3209578991 0 -0 0
39.5127036572 9.3209578991 0 -0 0
42.7547676563 9.3209578991 0 -0 0
-35.0547683239 6.0788938999 0 -0 0
-31.8127043247 6.0788938999 0 -0 0
-28.5706403255 6.0788938999 0 -0 0
-25.3285763264 6.0788938999 5.2821777048 4.9751060958 1
-22.0865123272 6.0788938999 4.7440692015 4.4561213105 1
-18.844448328 6.0788938999 2.0241892174 3.4969621958 1
-15.6023843288 6.0788938999 0.0252803556 0.8912968034 1
-12.3603203297 6.0788938999 -0.4277541862 -3.0327905229 1
-9.1182563305 6.0788938999 0.3235688202 -4.1729788063 1
-5.8761923313 6.0788938999 -0.1236319815 -1.0096919154 1
-2.6341283321 6.0788938999 -1.3188426883 4.043186564 1
0.607935667 6.0788938999 -1.8335645233 5.3121749125 1
3.8499996662 6.0788938999 -1.667281838 2.5922435986 1
7.0920636654 6.0788938999 -0.6239893543 -1.0545155452 1
10.3341276646 6.0788938999 0.7878844433 -2.8628984381 1
13.5761916637 6.0788938999 2.03456843 -3.0269866182 1
16.8182556629 6.0788938999 2.541603307 -2.3662942545 1
20.0603196621 6.0788938999 2.0799244568 -2.5314603631 1
23.3023836613 6.0788938999 1.0128955065 -5.6037023108 1
26.5444476604 6.0788938999 -0.1786029051 -10.4629649202 1
29.7865116596 6.0788938999 -0.1212744282 -14.5288637679 1
33.0285756588 6.0788938999 0.5350507873 -16.9135324746 1
36.270639658 6.0788938999 0 -0 0
39.5127036572 6.0788938999 0 -0 0
42.7547676563 6.0788938999 0 -0 0
-35.0547683239 2.8368299007 0 -0 0
-31.8127043247 2.8368299007 0 -0 0
-28.5706403255 2.8368299007 3.3831507705 7.0675375416 1
-25.3285763264 2.8368299007 5.1549900033 6.7626069943 1
-22.0865123272 2.8368299007 6.4506738375 5.8777044652 1
-18.844448328 2.8368299007 5.5954659716 4.4855563046 1
-15.6023843288 2.8368299007 4.3461686878 1.7560207089 1
-12.3603203297 2.8368299007 2.0430796863 -1.7686995021 1
-9.1182563305 2.8368299007 -0.1608997804 -2.7933463909 1
-5.8761923313 2.8368299007 -3.5834573451 -0.42717446 1
-2.6341283321 2.8368299007 -5.3821822863 3.4237361338 1
0.607935667 2.8368299007 -5.2441796717 4.1260596324 1
3.8499996662 2.8368299007 -3.7557734101 1.1347195329 1
7.0920636654 2.8368299007 -1.7902760357 -1.6791876629 1
10.3341276646 2.8368299007 -0.3413857388 -2.5769946859 1
13.5761916637 2.8368299007 0.5859979639 -2.593596293 1
16.8182556629 2.8368299007 0.6179065318 -2.4716927052 1
20.0603196621 2.8368299007 0.3803476422 -3.1340083022 1
23.3023836613 2.8368299007 -0.2591676743 -5.7445371295 1
26.5444476604 2.8368299007 -0.8577865153 -10.5369573078 1
29.7865116596 2.8368299007 -0.4148928699 -15.478336926 1
33.0285756588 2.8368299007 0.2532372941 -18.3534697005 1
36.270639658 2.8368299007 0 -0 0
39.5127036572 2.8368299007 0 -0 0
42.7547676563 2.8368299007 0 -0 0
-35.0547683239 -0.4052340984 0 -0 0
-31.8127043247 -0.4052340984 0 -0 0
-28.5706403255 -0.4052340984 -0.1663217112 10.4149696295 1
-25.3285763264 -0.4052340984 2.2391989469 10.5738448029 1
-22.0865123272 -0.4052340984 4.6532194629 8.612532629 1
-18.844448328 -0.4052340984 5.1051226801 5.7144686638 1
-15.6023843288 -0.4052340984 5.4647419402 3.486726707 1
-12.3603203297 -0.4052340984 3.5882989647 1.6485266386 1
-9.1182563305 -0.4052340984 -0.3594452668 0.963144204 1
-5.8761923313 -0.4052340984 -5.7811969613 1.4292827943 1
-2.6341283321 -0.4052340984 -8.1876555227 2.5876486645 1
0.607935667 -0.4052340984 -7.1088581305 2.2509673888 1
3.8499996662 -0.4052340984 -4.9876613953 0.2897385693 1
7.0920636654 -0.4052340984 -2.7887665539 -0.4729664138 1
10.3341276646 -0.4052340984 -1.1040112548 -0.5260800528 1
13.5761916637 -0.4052340984 0.1234280016 -2.054349926 1
16.8182556629 -0.4052340984 0.0055159877 -4.0805852448 1
20.0603196621 -0.4052340984 -0.3270836745 -4.9871955007 1
23.3023836613 -0.4052340984 -1.0132197154 -5.6527773416 1
26.5444476604 -0.4052340984 -1.213128634 -8.9474404559 1
29.7865116596 -0.4052340984 -0.5690828667 -14.3970799246 1
33.0285756588 -0.4052340984 0.0568647006 -18.577506099 1
36.270639658 -0.4052340984 0 -0 0
39.5127036572 -0.4052340984 0 -0 0
42.7547676563 -0.4052340984 0 -0 0
-35.0547683239 -3.6472980976 0 -0 0
-31.8127043247 -3.6472980976 0 -0 0
-28.5706403255 -3.6472980976 -4.2863629854 10.5584844741 1
-25.3285763264 -3.6472980976 -1.9465531601 10.6350964995 1
-22.0865123272 -3.6472980976 0.3222826659 8.1155484531 1
-18.844448328 -3.6472980976 0.4142895168 5.7878233525 1
-15.6023843288 -3.6472980976 1.246158006 5.2836203776 1
-12.3603203297 -3.6472980976 1.1710039769 5.7113145909 1
-9.1182563305 -3.6472980976 -1.5519505941 4.996282105 1
-5.8761923313 -3.6472980976 -6.205582508 2.6791744484 1
-2.6341283321 -3.6472980976 -8.2016830852 0.5312310484 1
0.607935667 -3.6472980976 -6.4633330046 -0.1718780811 1
3.8499996662 -3.6472980976 -4.4701120362 -0.112335907 1
7.0920636654 -3.6472980976 -2.7926247525 1.2342757324 1
10.3341276646 -3.6472980976 -1.2653726837 1.412432086 1
13.5761916637 -3.6472980976 -0.0753880237 -1.6887917937 1
16.8182556629 -3.6472980976 -0.2600888011 -5.7026422493 1
20.0603196621 -3.6472980976 -1.241618931 -7.4277184115 1
23.3023836613 -3.6472980976 -2.38340901 -6.9893940728 1
26.5444476604 -3.6472980976 -2.5347691806 -8.5252174086 1
29.7865116596 -3.6472980976 -1.5981591505 -13.5267901191 1
33.0285756588 -3.6472980976 -0.6645930604 -17.9883484764 1
36.270639658 -3.6472980976 0 -0 0
39.5127036572 -3.6472980976 0 -0 0
42.7547676563 -3.6472980976 0 -0 0
-35.0547683239 -6.8893620968 0 -0 0
-31.8127043247 -6.8893620968 0 -0 0
-28.5706403255 -6.8893620968 -6.4541872199 6.785013412 1
-25.3285763264 -6.8893620968 -4.9739605327 6.7321411746 1
-22.0865123272 -6.8893620968 -3.7125364034 5.1881630236 1
-18.844448328 -6.8893620968 -3.5460154868 4.5744585254 1
-15.6023843288 -6.8893620968 -2.7044462836 5.9574747906 1
-12.3603203297 -6.8893620968 -1.3951111051 7.9205454674 1
-9.1182563305 -6.8893620968 -2.3867928597 7.3833669415 1
-5.8761923313 -6.8893620968 -5.2186330704 3.0518333209 1
-2.6341283321 -6.8893620968 -6.4898415891 -1.05319931 1
0.607935667 -6.8893620968 -4.3316797599 -1.1883485093 1
3.8499996662 -6.8893620968 -2.4228368834 0.5559552764 1
7.0920636654 -6.8893620968 -1.6373121069 2.1677036091 1
10.3341276646 -6.8893620968 -1.4425241031 1.1610498969 1
13.5761916637 -6.8893620968 -1.33876821 -2.4755339952 1
16.8182556629 -6.8893620968 -1.8592936478 -6.7471947316 1
20.0603196621 -6.8893620968 -2.8765069068 -9.0604937079 1
23.3023836613 -6.8893620968 -3.4769100099 -8.9583115299 1
26.5444476604 -6.8893620968 -3.2992583503 -9.185630628 1
29.7865116596 -6.8893620968 -2.3983445082 -12.2615123203 1
33.0285756588 -6.8893620968 -1.5885199946 -15.8561155055 1
36.270639658 -6.8893620968 0 -0 0
39.5127036572 -6.8893620968 0 -0 0
42.7547676563 -6.8893620968 0 -0 0
-35.0547683239 -10.131426096 0 -0 0
-31.8127043247 -10.131426096 0 -0 0
-28.5706403255 -10.131426096 -5.745288358 1.0984261817 1
-25.3285763264 -10.131426096 -5.7855775174 1.9361716829 1
-22.0865123272 -10.131426096 -5.3289616093 3.018357454 1
-18.844448328 -10.131426096 -4.6241389473 4.4779576641 1
-15.6023843288 -10.131426096 -3.4220162794 5.9128038673 1
-12.3603203297 -10.131426096 -2.5163058069 7.5325800115 1
-9.1182563305 -10.131426096 -2.4183278515 7.3855916408 1
-5.8761923313 -10.131426096 -3.599504891 3.5903346491 1
-2.6341283321 -10.131426096 -3.7891740937 0.4171795803 1
0.607935667 -10.131426096 -2.049317027 1.1233547858 1
3.8499996662 -10.131426096 -0.9430556343 2.9605907574 1
7.0920636654 -10.131426096 -1.3401809906 2.991765232 1
10.3341276646 -10.131426096 -2.651616016 0.3463627788 1
13.5761916637 -10.131426096 -3.2764192515 -2.8178129502 1
16.8182556629 -10.131426096 -3.7709773337 -6.1555159039 1
20.0603196621 -10.131426096 -3.8989980897 -8.8896224293 1
23.3023836613 -10.131426096 -2.9165101283 -10.2545364419 1
26.5444476604 -10.131426096 -2.0762465168 -10.5321950986 1
29.7865116596 -10.131426096 -1.6203046914 -11.8942122919 1
33.0285756588 -10.131426096 -1.9495690951 -13.6622165754 1
36.270639658 -10.131426096 0 -0 0
39.5127036572 -10.131426096 0 -0 0
42.7547676563 -10.131426096 0 -0 0
-35.0547683239 -13.3734900951 0 -0 0
-31.8127043247 -13.3734900951 0 -0 0
-28.5706403255 -13.3734900951 0 -0 0
-25.3285763264 -13.3734900951 -3.0914908202 2.856698689 1
-22.0865123272 -13.3734900951 -2.3497376365 5.6504687027 1
-18.844448328 -13.3734900951 -1.8225003582 6.915611836 1
-15.6023843288 -13.3734900951 -1.2134227998 6.6416954327 1
-12.3603203297 -13.3734900951 -2.3518246509 6.6700313625 1
-9.1182563305 -13.3734900951 -2.4000450384 6.859569221 1
-5.8761923313 -13.3734900951 -2.3551463008 5.0559295905 1
-2.6341283321 -13.3734900951 -1.8776237147 3.6278085131 1
0.607935667 -13.3734900951 -1.3139923124 3.9115201756 1
3.8499996662 -13.3734900951 -2.1911631961 3.9775078125 1
7.0920636654 -13.3734900951 -3.7722053266 2.4503759916 1
10.3341276646 -13.3734900951 -5.1265743612 -0.3036627359 1
13.5761916637 -13.3734900951 -4.6404872262 -2.2952755302 1
16.8182556629 -13.3734900951 -4.2866631145 -4.8746042179 1
20.0603196621 -13.3734900951 -3.8061150823 -7.9291254152 1
23.3023836613 -13.3734900951 -2.2999412694 -10.2095883371 1
26.5444476604 -13.3734900951 -1.020346045 -10.8583816695 1
29.7865116596 -13.3734900951 -0.7626083809 -11.3545814034 1
33.0285756588 -13.3734900951 -1.8313786234 -12.0502033274 1
36.270639658 -13.3734900951 0 -0 0
39.5127036572 -13.3734900951 0 -0 0
42.7547676563 -13.3734900951 0 -0 0
-35.0547683239 -16.6155540943 0 -0 0
-31.8127043247 -16.6155540943 0 -0 0
-28.5706403255 -16.6155540943 0 -0 0
-25.3285763264 -16.6155540943 0.7044553511 8.4787843592 1
-22.0865123272 -16.6155540943 1.0574485219 11.0979112507 1
-18.844448328 -16.6155540943 0.2021075756 10.3702836092 1
-15.6023843288 -16.6155540943 -0.824555296 7.6723670959 1
-12.3603203297 -16.6155540943 -3.4700562573 6.6391168589 1
-9.1182563305 -16.6155540943 -3.4188471095 7.550188591 1
-5.8761923313 -16.6155540943 -1.8468509723 7.452025848 1
-2.6341283321 -16.6155540943 -0.6613967159 6.2437695561 1
0.607935667 -16.6155540943 -1.7325182463 4.5819176692 1
3.8499996662 -16.6155540943 -5.2229248559 2.7866774259 1
7.0920636654 -16.6155540943 -7.5895972913 1.2586951135 1
10.3341276646 -16.6155540943 -7.8463773503 0.0559156678 1
13.5761916637 -16.6155540943 -5.9906031237 -1.2793225719 1
16.8182556629 -16.6155540943 -4.915496353 -4.4516725158 1
20.0603196621 -16.6155540943 -4.6975944843 -8.5268835176 1
23.3023836613 -16.6155540943 -3.5371650001 -11.1363217349 1
26.5444476604 -16.6155540943 -2.0874394597 -11.743470194 1
29.7865116596 -16.6155540943 -1.1813439372 -11.5972004422 1
33.0285756588 -16.6155540943 0 -0 0
36.270639658 -16.6155540943 0 -0 0
39.5127036572 -16.6155540943 0 -0 0
42.7547676563 -16.6155540943 0 -0 0
-35.0547683239 -19.8576180935 0 -0 0
-31.8127043247 -19.8576180935 0 -0 0
-28.5706403255 -19.8576180935 0 -0 0
-25.3285763264 -19.8576180935 0 -0 0
-22.0865123272 -19.8576180935 0.3982461226 14.3102961199 1
-18.844448328 -19.8576180935 -3.024618497 11.2972017948 1
-15.6023843288 -19.8576180935 -5.8937713354 7.9453408402 1
-12.3603203297 -19.8576180935 -8.3806355055 7.9555416058 1
-9.1182563305 -19.8576180935 -6.7980047138 9.3816831597 1
-5.8761923313 -19.8576180935 -3.097855127 8.8456489891 1
-2.6341283321 -19.8576180935 -1.1541725929 5.526165139 1
0.607935667 -19.8576180935 -2.688911735 2.4788577588 1
3.8499996662 -19.8576180935 -7.005557564 0.8659735627 1
7.0920636654 -19.8576180935 -9.6573816171 0.546286719 1
10.3341276646 -19.8576180935 -9.6254429306 0.4967545123 1
13.5761916637 -19.8576180935 -8.1619676132 -1.0152981244 1
16.8182556629 -19.8576180935 -7.2190320758 -5.0237505591 1
20.0603196621 -19.8576180935 -7.1939963582 -9.5097640019 1
23.3023836613 -19.8576180935 -6.3080611919 -11.9322230065 1
26.5444476604 -19.8576180935 -4.7141112461 -11.9299970995 1
29.7865116596 -19.8576180935 -3.0767361845 -11.0755869609 1
33.0285756588 -19.8576180935 0 -0 0
36.270639658 -19.8576180935 0 -0 0
39.5127036572 -19.8576180935 0 -0 0
42.7547676563 -19.8576180935 0 -0 0
-35.0547683239 -23.0996820927 0 -0 0
-31.8127043247 -23.0996820927 0 -0 0
-28.5706403255 -23.0996820927 0 -0 0
-25.3285763264 -23.0996820927 0 -0 0
-22.0865123272 -23.0996820927 -4.039686769 13.7817090155 1
-18.844448328 -23.0996820927 -7.5386888764 9.5563075616 1
-15.6023843288 -23.0996820927 -10.7071347266 7.2046415806 1
-12.3603203297 -23.0996820927 -11.8761248344 8.9999914283 1
-9.1182563305 -23.0996820927 -9.9908787769 10.5294788398 1
-5.8761923313 -23.0996820927 -5.7291937093 8.5653646559 1
-2.6341283321 -23.0996820927 -3.551628263 3.9127653792 1
0.607935667 -23.0996820927 -4.8316314093 1.1160545383 1
3.8499996662 -23.0996820927 -8.1643529449 0.6760981345 1
7.0920636654 -23.0996820927 -10.1833025849 0.7436448424 1
10.3341276646 -23.0996820927 -10.1272454767 0.4439242824 1
13.5761916637 -23.0996820927 -9.684642034 -1.5566099924 1
16.8182556629 -23.0996820927 -9.3683005426 -5.3214638171 1
20.0603196621 -23.0996820927 -8.9738826134 -8.9997039807 1
23.3023836613 -23.0996820927 -7.8616887647 -10.6122746113 1
26.5444476604 -23.0996820927 -6.5407276603 -10.3939714634 1
29.7865116596 -23.0996820927 0 -0 0
33.0285756588 -23.0996820927 0 -0 0
36.270639658 -23.0996820927 0 -0 0
39.5127036572 -23.0996820927 0 -0 0
42.7547676563 -23.0996820927 0 -0 0
-35.0547683239 -26.3417460918 0 -0 0
-31.8127043247 -26.3417460918 0 -0 0
-28.5706403255 -26.3417460918 0 -0 0
-25.3285763264 -26.3417460918 0 -0 0
-22.0865123272 -26.3417460918 0 -0 0
-18.844448328 -26.3417460918 -9.7097441786 5.6557224714 1
-15.6023843288 -26.3417460918 -11.53441851 4.5663568517 1
-12.3603203297 -26.3417460918 -11.9825843048 7.2826002616 1
-9.1182563305 -26.3417460918 -10.7921382888 8.8047782919 1
-5.8761923313 -26.3417460918 -7.6326643054 6.4404295924 1
-2.6341283321 -26.3417460918 -5.9816856061 2.6611214121 1
0.607935667 -26.3417460918 -7.3960913277 1.4186801455 1
3.8499996662 -26.3417460918 -9.9673334388 1.5476671119 1
7.0920636654 -26.3417460918 -11.1927218478 0.8107063315 1
10.3341276646 -26.3417460918 -10.3987228027 -0.3682850346 1
13.5761916637 -26.3417460918 -9.816310536 -2.1217527591 1
16.8182556629 -26.3417460918 -9.6783356999 -4.6497091 1
20.0603196621 -26.3417460918 -8.8628113002 -6.7951235954 1
23.3023836613 -26.3417460918 -7.8061208005 -7.7749436085 1
26.5444476604 -26.3417460918 0 -0 0
29.7865116596 -26.3417460918 0 -0 0
33.0285756588 -26.3417460918 0 -0 0
36.270639658 -26.3417460918 0 -0 0
39.5127036572 -26.3417460918 0 -0 0
42.7547676563 -26.3417460918 0 -0 0
-35.0547683239 -29.583810091 0 -0 0
-31.8127043247 -29.583810091 0 -0 0
-28.5706403255 -29.583810091 0 -0 0
-25.3285763264 -29.583810091 0 -0 0
-22.0865123272 -29.583810091 0 -0 0
-18.844448328 -29.583810091 0 -0 0
-15.6023843288 -29.583810091 -9.1537831276 1.967623641 1
-12.3603203297 -29.583810091 -9.9920382293 4.7031758587 1
-9.1182563305 -29.583810091 -10.3768067368 5.9992603683 1
-5.8761923313 -29.583810091 -8.7211153466 4.5779109157 1
-2.6341283321 -29.583810091 -7.7558452534 2.8860895997 1
0.607935667 -29.583810091 -9.2439341753 2.5126234887 1
3.8499996662 -29.583810091 -11.6983831964 1.914026142 1
7.0920636654 -29.583810091 -12.4616833235 -0.0946628442 1
10.3341276646 -29.583810091 -11.0026235873 -2.0570317636 1
13.5761916637 -29.583810091 -9.3659683524 -3.5531376647 1
16.8182556629 -29.583810091 -8.5519144041 -4.6565583235 1
20.0603196621 -29.583810091 -7.6331407678 -5.3651413554 1
23.3023836613 -29.583810091 0 -0 0
26.5444476604 -29.583810091 0 -0 0
29.7865116596 -29.583810091 0 -0 0
33.0285756588 -29.583810091 0 -0 0
36.270639658 -29.583810091 0 -0 0
39.5127036572 -29.583810091 0 -0 0
42.7547676563 -29.583810091 0 -0 0
-35.0547683239 -32.8258740902 0 -0 0
-31.8127043247 -32.8258740902 0 -0 0
-28.5706403255 -32.8258740902 0 -0 0
-25.3285763264 -32.8258740902 0 -0 0
-22.0865123272 -32.8258740902 0 -0 0
-18.844448328 -32.8258740902 0 -0 0
-15.6023843288 -32.8258740902 0 -0 0
-12.3603203297 -32.8258740902 0 -0 0
-9.1182563305 -32.8258740902 -9.6740372717 4.2992310955 1
-5.8761923313 -32.8258740902 -8.8754318189 4.4423265444 1
-2.6341283321 -32.8258740902 -8.230558885 4.393107186 1
0.607935667 -32.8258740902 -9.46968137 3.7817514847 1
3.8499996662 -32.8258740902 -12.0942588955 1.7642356103 1
7.0920636654 -32.8258740902 -13.0953107769 -1.0787990529 1
10.3341276646 -32.8258740902 -12.0052262363 -3.2839387835 1
13.5761916637 -32.8258740902 -9.737929138 -4.6034209822 1
16.8182556629 -32.8258740902 -8.4029785156 -5.361633408 1
20.0603196621 -32.8258740902 0 -0 0
23.3023836613 -32.8258740902 0 -0 0
26.5444476604 -32.8258740902 0 -0 0
29.7865116596 -32.8258740902 0 -0 0
33.0285756588 -32.8258740902 0 -0 0
36.270639658 -32.8258740902 0 -0 0
39.5127036572 -32.8258740902 0 -0 0
42.7547676563 -32.8258740902 0 -0 0
-35.0547683239 -36.0679380894 0 -0 0
-31.8127043247 -36.0679380894 0 -0 0
-28.5706403255 -36.0679380894 0 -0 0
-25.3285763264 -36.0679380894 0 -0 0
-22.0865123272 -36.0679380894 0 -0 0
-18.844448328 -36.0679380894 0 -0 0
-15.6023843288 -36.0679380894 0 -0 0
-12.3603203297 -36.0679380894 0 -0 0
-9.1182563305 -36.0679380894 0 -0 0
-5.8761923313 -36.0679380894 0 -0 0
-2.6341283321 -36.0679380894 0 -0 0
0.607935667 -36.0679380894 0 -0 0
3.8499996662 -36.0679380894 0 -0 0
7.0920636654 -36.0679380894 0 -0 0
10.3341276646 -36.0679380894 0 -0 0
13.5761916637 -36.0679380894 0 -0 0
16.8182556629 -36.0679380894 0 -0 0
20.0603196621 -36.0679380894 0 -0 0
23.3023836613 -36.0679380894 0 -0 0
26.5444476604 -36.0679380894 0 -0 0
29.7865116596 -36.0679380894 0 -0 0
33.0285756588 -36.0679380894 0 -0 0
36.270639658 -36.0679380894 0 -0 0
39.5127036572 -36.0679380894 0 -0 0
42.7547676563 -36.0679380894 0 -0 0
-35.0547683239 -39.3100020885 0 -0 0
-31.8127043247 -39.3100020885 0 -0 0
-28.5706403255 -39.3100020885 0 -0 0
-25.3285763264 -39.3100020885 0 -0 0
-22.0865123272 -39.3100020885 0 -0 0
-18.844448328 -39.3100020885 0 -0 0
-15.6023843288 -39.3100020885 0 -0 0
-12.3603203297 -39.3100020885 0 -0 0
-9.1182563305 -39.3100020885 0 -0 0
-5.8761923313 -39.3100020885 0 -0 0
-2.6341283321 -39.3100020885 0 -0 0
0.607935667 -39.3100020885 0 -0 0
3.8499996662 -39.3100020885 0 -0 0
7.0920636654 -39.3100020885 0 -0 0
10.3341276646 -39.3100020885 0 -0 0
13.5761916637 -39.3100020885 0 -0 0
16.8182556629 -39.3100020885 0 -0 0
20.0603196621 -39.3100020885 0 -0 0
23.3023836613 -39.3100020885 0 -0 0
26.5444476604 -39.3100020885 0 -0 0
29.7865116596 -39.3100020885 0 -0 0
33.0285756588 -39.3100020885 0 -0 0
36.270639658 -39.3100020885 0 -0 0
39.5127036572 -39.3100020885 0 -0 0
42.7547676563 -39.3100020885 0 -0 0
-35.0547683239 -42.5520660877 0 -0 0
-31.8127043247 -42.5520660877 0 -0 0
-28.5706403255 -42.5520660877 0 -0 0
-25.3285763264 -42.5520660877 0 -0 0
-22.0865123272 -42.5520660877 0 -0 0
-18.844448328 -42.5520660877 0 -0 0
-15.6023843288 -42.5520660877 0 -0 0
-12.3603203297 -42.5520660877 0 -0 0
-9.1182563305 -42.5520660877 0 -0 0
-5.8761923313 -42.5520660877 0 -0 0
-2.6341283321 -42.5520660877 0 -0 0
0.607935667 -42.5520660877 0 -0 0
3.8499996662 -42.5520660877 0 -0 0
7.0920636654 -42.5520660877 0 -0 0
10.3341276646 -42.5520660877 0 -0 0
13.5761916637 -42.5520660877 0 -0 0
16.8182556629 -42.5520660877 0 -0 0
20.0603196621 -42.5520660877 0 -0 0
23.3023836613 -42.5520660877 0 -0 0
26.5444476604 -42.5520660877 0 -0 0
29.7865116596 -42.5520660877 0 -0 0
33.0285756588 -42.5520660877 0 -0 0
36.270639658 -42.5520660877 0 -0 0
39.5127036572 -42.5520660877 0 -0 0
42.7547676563 -42.5520660877 0 -0 0
