TITLE = "B00090"
VARIABLES = "x", "y", "Vx", "Vy", "isValid"
ZONE T="Frame 0", I=25, J=25, F=POINT
-35.0547683239 35.2574698925 0 -0 0
-31.8127043247 35.2574698925 0 -0 0
-28.5706403255 35.2574698925 0 -0 0
-25.3285763264 35.2574698925 0 -0 0
-22.0865123272 35.2574698925 0 -0 0
-18.844448328 35.2574698925 0 -0 0
-15.6023843288 35.2574698925 0 -0 0
-12.3603203297 35.2574698925 0 -0 0
-9.1182563305 35.2574698925 0 -0 0
-5.8761923313 35.2574698925 0 -0 0
-2.6341283321 35.2574698925 0 -0 0
0.607935667 35.2574698925 0 -0 0
3.8499996662 35.2574698925 0 -0 0
7.0920636654 35.2574698925 0 -0 0
10.3341276646 35.2574698925 0 -0 0
13.5761916637 35.2574698925 0 -0 0
16.8182556629 35.2574698925 0 -0 0
20.0603196621 35.2574698925 0 -0 0
23.3023836613 35.2574698925 0 -0 0
26.5444476604 35.2574698925 0 -0 0
29.7865116596 35.2574698925 0 -0 0
33.0285756588 35.2574698925 0 -0 0
36.270639658 35.2574698925 0 -0 0
39.5127036572 35.2574698925 0 -0 0
42.7547676563 35.2574698925 0 -0 0
-35.0547683239 32.0154058933 0 -0 0
-31.8127043247 32.0154058933 0 -0 0
-28.5706403255 32.0154058933 0 -0 0
-25.3285763264 32.0154058933 0 -0 0
-22.0865123272 32.0154058933 0 -0 0
-18.844448328 32.0154058933 0 -0 0
-15.6023843288 32.0154058933 0 -0 0
-12.3603203297 32.0154058933 0 -0 0
-9.1182563305 32.0154058933 0 -0 0
-5.8761923313 32.0154058933 0 -0 0
-2.6341283321 32.0154058933 0 -0 0
0.607935667 32.0154058933 0 -0 0
3.8499996662 32.0154058933 0 -0 0
7.0920636654 32.0154058933 0 -0 0
10.3341276646 32.0154058933 0 -0 0
13.5761916637 32.0154058933 0 -0 0
16.8182556629 32.0154058933 0 -0 0
20.0603196621 32.0154058933 0 -0 0
23.3023836613 32.0154058933 0 -0 0
26.5444476604 32.0154058933 0 -0 0
29.7865116596 32.0154058933 0 -0 0
33.0285756588 32.0154058933 0 -0 0
36.270639658 32.0154058933 0 -0 0
39.5127036572 32.0154058933 0 -0 0
42.7547676563 32.0154058933 0 -0 0
-35.0547683239 28.7733418941 0 -0 0
-31.8127043247 28.7733418941 0 -0 0
-28.5706403255 28.7733418941 0 -0 0
-25.3285763264 28.7733418941 0 -0 0
-22.0865123272 28.7733418941 0 -0 0
-18.844448328 28.7733418941 0 -0 0
-15.6023843288 28.7733418941 0 -0 0
-12.3603203297 28.7733418941 0 -0 0
-9.1182563305 28.7733418941 0 -0 0
-5.8761923313 28.7733418941 0 -0 0
-2.6341283321 28.7733418941 0 -0 0
0.607935667 28.7733418941 0 -0 0
3.8499996662 28.7733418941 0 -0 0
7.0920636654 28.7733418941 0 -0 0
10.3341276646 28.7733418941 0 -0 0
13.5761916637 28.7733418941 0 -0 0
16.8182556629 28.7733418941 0 -0 0
20.0603196621 28.7733418941 0 -0 0
23.3023836613 28.7733418941 0 -0 0
26.5444476604 28.7733418941 0 -0 0
29.7865116596 28.7733418941 0 -0 0
33.0285756588 28.7733418941 0 -0 0
36.270639658 28.7733418941 0 -0 0
39.5127036572 28.7733418941 0 -0 0
42.7547676563 28.7733418941 0 -0 0
-35.0547683239 25.531277895 0 -0 0
-31.8127043247 25.531277895 0 -0 0
-28.5706403255 25.531277895 0 -0 0
-25.3285763264 25.531277895 0 -0 0
-22.0865123272 25.531277895 0 -0 0
-18.844448328 25.531277895 0 -0 0
-15.6023843288 25.531277895 0 -0 0
-12.3603203297 25.531277895 0 -0 0
-9.1182563305 25.531277895 2.1787217283 1.3729146871 1
-5.8761923313 25.531277895 1.3149529368 1.594998284 1
-2.6341283321 25.531277895 -0.1997890104 2.2842441257 1
0.607935667 25.531277895 -1.2467967616 2.4277967128 1
3.8499996662 25.531277895 -2.0573195131 1.3050088208 1
7.0920636654 25.531277895 -1.9288370897 -0.3066263219 1
10.3341276646 25.531277895 -1.2253071869 -0.5397778959 1
13.5761916637 25.531277895 -0.1555910018 0.4187199686 1
16.8182556629 25.531277895 0 -0 0
20.0603196621 25.531277895 0 -0 0
23.3023836613 25.531277895 0 -0 0
26.5444476604 25.531277895 0 -0 0
29.7865116596 25.531277895 0 -0 0
33.0285756588 25.531277895 0 -0 0
36.270639658 25.531277895 0 -0 0
39.5127036572 25.531277895 0 -0 0
42.7547676563 25.531277895 0 -0 0
-35.0547683239 22.2892138958 0 -0 0
-31.8127043247 22.2892138958 0 -0 0
-28.5706403255 22.2892138958 0 -0 0
-25.3285763264 22.2892138958 0 -0 0
-22.0865123272 22.2892138958 0 -0 0
-18.844448328 22.2892138958 0 -0 0
-15.6023843288 22.2892138958 2.5446818947 1.3267467417 1
-12.3603203297 22.2892138958 2.5770605089 1.8830204523 1
-9.1182563305 22.2892138958 2.5333298291 2.2722486243 1
-5.8761923313 22.2892138958 2.1184505843 2.5151593379 1
-2.6341283321 22.2892138958 1.3650361477 2.5505718526 1
0.607935667 22.2892138958 0.9727032701 2.1444651937 1
3.8499996662 22.2892138958 0.5421620954 0.9655339894 1
7.0920636654 22.2892138958 0.25724384 -0.7972523809 1
10.3341276646 22.2892138958 0.1830131269 -0.9552384899 1
13.5761916637 22.2892138958 0.6172366386 0.3195644067 1
16.8182556629 22.2892138958 1.0320959175 1.8557207831 1
20.0603196621 22.2892138958 0.6496843595 2.1282494668 1
23.3023836613 22.2892138958 0 -0 0
26.5444476604 22.2892138958 0 -0 0
29.7865116596 22.2892138958 0 -0 0
33.0285756588 22.2892138958 0 -0 0
36.270639658 22.2892138958 0 -0 0
39.5127036572 22.2892138958 0 -0 0
42.7547676563 22.2892138958 0 -0 0
-35.0547683239 19.0471498966 0 -0 0
-31.8127043247 19.0471498966 0 -0 0
-28.5706403255 19.0471498966 0 -0 0
-25.3285763264 19.0471498966 0 -0 0
-22.0865123272 19.0471498966 0 -0 0
-18.844448328 19.0471498966 3.2045972139 1.5275561986 1
-15.6023843288 19.0471498966 2.8275888852 1.1441212124 1
-12.3603203297 19.0471498966 2.7269182224 1.6340721319 1
-9.1182563305 19.0471498966 2.8220041894 2.6074067601 1
-5.8761923313 19.0471498966 2.6343015267 3.1781472059 1
-2.6341283321 19.0471498966 2.0416238791 2.8363792857 1
0.607935667 19.0471498966 1.8397718209 1.9610656394 1
3.8499996662 19.0471498966 1.7800064276 0.7288854511 1
7.0920636654 19.0471498966 1.4799937399 -0.8819310548 1
10.3341276646 19.0471498966 0.975775819 -0.9378617254 1
13.5761916637 19.0471498966 0.9079242265 0.5021309066 1
16.8182556629 19.0471498966 0.8426685694 1.9504995254 1
20.0603196621 19.0471498966 0.1689789217 1.8637031902 1
23.3023836613 19.0471498966 -0.8693160466 0.8976013258 1
26.5444476604 19.0471498966 0 -0 0
29.7865116596 19.0471498966 0 -0 0
33.0285756588 19.0471498966 0 -0 0
36.270639658 19.0471498966 0 -0 0
39.5127036572 19.0471498966 0 -0 0
42.7547676563 19.0471498966 0 -0 0
-35.0547683239 15.8050858974 0 -0 0
-31.8127043247 15.8050858974 0 -0 0
-28.5706403255 15.8050858974 0 -0 0
-25.3285763264 15.8050858974 0 -0 0
-22.0865123272 15.8050858974 4.1831170702 2.5805597001 1
-18.844448328 15.8050858974 4.1435087872 2.8531397137 1
-15.6023843288 15.8050858974 4.0768001158 2.3195618309 1
-12.3603203297 15.8050858974 3.779763205 1.9337025626 1
-9.1182563305 15.8050858974 3.7850945725 2.3331918884 1
-5.8761923313 15.8050858974 3.467230696 2.7431892045 1
-2.6341283321 15.8050858974 2.7532528891 2.5057333522 1
0.607935667 15.8050858974 2.3267311116 1.7504618291 1
3.8499996662 15.8050858974 1.9793226366 0.9697530827 1
7.0920636654 15.8050858974 1.6578602304 0.3444861794 1
10.3341276646 15.8050858974 1.0388886781 0.7911802774 1
13.5761916637 15.8050858974 0.8908673682 1.5523542888 1
16.8182556629 15.8050858974 0.7756564476 1.4654577093 1
20.0603196621 15.8050858974 0.0241402274 0.8269407787 1
23.3023836613 15.8050858974 -0.8460438139 0.3537982958 1
26.5444476604 15.8050858974 -1.2621616195 0.4809752029 1
29.7865116596 15.8050858974 0 -0 0
33.0285756588 15.8050858974 0 -0 0
36.270639658 15.8050858974 0 -0 0
39.5127036572 15.8050858974 0 -0 0
42.7547676563 15.8050858974 0 -0 0
-35.0547683239 12.5630218983 0 -0 0
-31.8127043247 12.5630218983 0 -0 0
-28.5706403255 12.5630218983 0 -0 0
-25.3285763264 12.5630218983 0 -0 0
-22.0865123272 12.5630218983 3.5307342664 2.4984425403 1
-18.844448328 12.5630218983 3.9553988064 3.4530168361 1
-15.6023843288 12.5630218983 4.7932619891 2.9975794027 1
-12.3603203297 12.5630218983 5.0374535353 2.1561262957 1
-9.1182563305 12.5630218983 4.8526582599 1.9473797229 1
-5.8761923313 12.5630218983 4.1746255911 2.0563039354 1
-2.6341283321 12.5630218983 3.2804021517 1.9519145707 1
0.607935667 12.5630218983 2.6481077666 1.4932931723 1
3.8499996662 12.5630218983 1.8805523888 1.3501758327 1
7.0920636654 12.5630218983 1.3310900082 1.8352606754 1
10.3341276646 12.5630218983 0.8384236602 2.4594690877 1
13.5761916637 12.5630218983 0.7124019027 1.8088616954 1
16.8182556629 12.5630218983 0.7510760567 -0.2379346548 1
20.0603196621 12.5630218983 0.0869267264 -1.1351103197 1
23.3023836613 12.5630218983 -0.516729288 -0.508039849 1
26.5444476604 12.5630218983 -0.9371381244 0.4437728968 1
29.7865116596 12.5630218983 -0.8025694062 0.2492031961 1
33.0285756588 12.5630218983 0 -0 0
36.270639658 12.5630218983 0 -0 0
39.5127036572 12.5630218983 0 -0 0
42.7547676563 12.5630218983 0 -0 0
-35.0547683239 9.3209578991 0 -0 0
-31.8127043247 9.3209578991 0 -0 0
-28.5706403255 9.3209578991 0 -0 0
-25.3285763264 9.3209578991 2.6101239247 1.2622420112 1
-22.0865123272 9.3209578991 2.5811943795 2.9058452798 1
-18.844448328 9.3209578991 3.1723907059 4.2032426276 1
-15.6023843288 9.3209578991 4.7181853324 3.4485958199 1
-12.3603203297 9.3209578991 5.5531073104 2.1440829368 1
-9.1182563305 9.3209578991 5.410732594 1.6126415867 1
-5.8761923313 9.3209578991 4.4759929358 1.5961536602 1
-2.6341283321 9.3209578991 3.5006981084 1.5663708304 1
0.607935667 9.3209578991 2.6198772142 0.9984967834 1
3.8499996662 9.3209578991 1.5935879188 1.0535729617 1
7.0920636654 9.3209578991 0.982994467 2.0363806783 1
10.3341276646 9.3209578991 0.7234575381 2.5539085996 1
13.5761916637 9.3209578991 0.7078521089 0.997350239 1
16.8182556629 9.3209578991 0.7562034632 -1.9549634172 1
20.0603196621 9.3209578991 0.3024259867 -2.7767662215 1
23.3023836613 9.3209578991 -0.1729173045 -1.513300067 1
26.5444476604 9.3209578991 -0.6040167298 -0.2012079432 1
29.7865116596 9.3209578991 -0.7629741066 -0.4465917023 1
33.0285756588 9.3209578991 0 -0 0
36.270639658 9.3209578991 0 -0 0
39.5127036572 9.3209578991 0 -0 0
42.7547676563 9.3209578991 0 -0 0
-35.0547683239 6.0788938999 0 -0 0
-31.8127043247 6.0788938999 0 -0 0
-28.5706403255 6.0788938999 0 -0 0
-25.3285763264 6.0788938999 2.4423070785 2.7370030428 1
-22.0865123272 6.0788938999 2.3867327735 3.7432791027 1
-18.844448328 6.0788938999 2.6111855483 3.8497663517 1
-15.6023843288 6.0788938999 3.1035578815 1.7377120798 1
-12.3603203297 6.0788938999 3.9996642233 0.5048405982 1
-9.1182563305 6.0788938999 4.23764817 0.83640964 1
-5.8761923313 6.0788938999 3.65267454 1.5244286965 1
-2.6341283321 6.0788938999 2.8404802447 1.5465977888 1
0.607935667 6.0788938999 2.0261388487 0.6803666706 1
3.8499996662 6.0788938999 1.2801578909 0.4579021001 1
7.0920636654 6.0788938999 0.8847415946 0.9817749284 1
10.3341276646 6.0788938999 0.8354004786 0.913762326 1
13.5761916637 6.0788938999 0.6273968687 -0.6413274704 1
16.8182556629 6.0788938999 0.1826416643 -2.8270004027 1
20.0603196621 6.0788938999 -0.3654615491 -3.0682525558 1
23.3023836613 6.0788938999 -0.7987639717 -1.7869244936 1
26.5444476604 6.0788938999 -0.8602986622 -0.8865967185 1
29.7865116596 6.0788938999 -0.9617593528 -1.2284591462 1
33.0285756588 6.0788938999 -0.7930647649 -1.7875624944 1
36.270639658 6.0788938999 0 -0 0
39.5127036572 6.0788938999 0 -0 0
42.7547676563 6.0788938999 0 -0 0
-35.0547683239 2.8368299007 0 -0 0
-31.8127043247 2.8368299007 0 -0 0
-28.5706403255 2.8368299007 0.080429311 2.6567478006 1
-25.3285763264 2.8368299007 1.6199949002 4.2806665716 1
-22.0865123272 2.8368299007 2.0514019277 4.7430042565 1
-18.844448328 2.8368299007 2.0813781505 3.5839446774 1
-15.6023843288 2.8368299007 1.63060238 0.620414376 1
-12.3603203297 2.8368299007 2.1670659103 -0.4501187474 1
-9.1182563305 2.8368299007 2.7061896894 0.5277934532 1
-5.8761923313 2.8368299007 2.304619992 1.5731643459 1
-2.6341283321 2.8368299007 1.4122237469 1.3945078275 1
0.607935667 2.8368299007 0.6160449917 0.2362577515 1
3.8499996662 2.8368299007 0.554495242 -0.3867997759 1
7.0920636654 2.8368299007 0.8311834989 -0.2603700589 1
10.3341276646 2.8368299007 1.0867933866 -0.4027314899 1
13.5761916637 2.8368299007 0.4971903637 -1.3457163191 1
16.8182556629 2.8368299007 -0.5611449204 -2.2642945997 1
20.0603196621 2.8368299007 -1.3377826754 -1.9870695299 1
23.3023836613 2.8368299007 -1.6631829926 -1.2038766416 1
26.5444476604 2.8368299007 -1.3248848242 -1.1083871309 1
29.7865116596 2.8368299007 -1.0939626673 -1.6870011342 1
33.0285756588 2.8368299007 -0.8013519812 -1.9473360924 1
36.270639658 2.8368299007 0 -0 0
39.5127036572 2.8368299007 0 -0 0
42.7547676563 2.8368299007 0 -0 0
-35.0547683239 -0.4052340984 0 -0 0
-31.8127043247 -0.4052340984 0 -0 0
-28.5706403255 -0.4052340984 -1.5491811937 3.0665577625 1
-25.3285763264 -0.4052340984 -0.1405750175 4.7239699129 1
-22.0865123272 -0.4052340984 0.4305841257 4.7707193961 1
-18.844448328 -0.4052340984 0.8623663523 3.0951216575 1
-15.6023843288 -0.4052340984 0.634057266 0.6529520375 1
-12.3603203297 -0.4052340984 1.6656800424 0.3308282679 1
-9.1182563305 -0.4052340984 2.16459679 1.3340531035 1
-5.8761923313 -0.4052340984 1.4439540944 1.8172419094 1
-2.6341283321 -0.4052340984 0.1254441637 1.0957727265 1
0.607935667 -0.4052340984 -0.7813979261 -0.2429761403 1
3.8499996662 -0.4052340984 -0.2474657914 -1.2507399566 1
7.0920636654 -0.4052340984 0.6889530347 -1.3074306874 1
10.3341276646 -0.4052340984 1.4575541087 -1.1088358903 1
13.5761916637 -0.4052340984 0.6943294668 -1.276673042 1
16.8182556629 -0.4052340984 -0.7959168216 -1.1861691766 1
20.0603196621 -0.4052340984 -1.8080265273 -0.4804277089 1
23.3023836613 -0.4052340984 -2.0504808575 0.0539317144 1
26.5444476604 -0.4052340984 -1.4836395233 -0.4461379608 1
29.7865116596 -0.4052340984 -1.015929407 -1.2612845572 1
33.0285756588 -0.4052340984 -0.7071578716 -1.4946608128 1
36.270639658 -0.4052340984 0 -0 0
39.5127036572 -0.4052340984 0 -0 0
42.7547676563 -0.4052340984 0 -0 0
-35.0547683239 -3.6472980976 0 -0 0
-31.8127043247 -3.6472980976 0 -0 0
-28.5706403255 -3.6472980976 -2.3148539711 1.810381816 1
-25.3285763264 -3.6472980976 -2.2964929553 2.8544428898 1
-22.0865123272 -3.6472980976 -1.9037563829 3.0674817011 1
-18.844448328 -3.6472980976 -0.9103397523 2.6818436044 1
-15.6023843288 -3.6472980976 0.4900125154 2.2300241758 1
-12.3603203297 -3.6472980976 1.8052932089 2.6137943162 1
-9.1182563305 -3.6472980976 1.5134718713 3.0151324251 1
-5.8761923313 -3.6472980976 0.3010861624 2.2426300503 1
-2.6341283321 -3.6472980976 -0.7772990052 0.8704653085 1
0.607935667 -3.6472980976 -1.2649604591 -0.5435813301 1
3.8499996662 -3.6472980976 -0.4448389363 -1.6982950762 1
7.0920636654 -3.6472980976 0.6479706948 -2.0015175448 1
10.3341276646 -3.6472980976 1.6868915297 -1.5285941199 1
13.5761916637 -3.6472980976 1.1617283577 -0.8920204043 1
16.8182556629 -3.6472980976 -0.0992405393 -0.1194837216 1
20.0603196621 -3.6472980976 -0.998868246 0.7374460747 1
23.3023836613 -3.6472980976 -1.4811359817 1.1481434404 1
26.5444476604 -3.6472980976 -1.4343350176 0.8030045028 1
29.7865116596 -3.6472980976 -1.182858321 0.0091897336 1
33.0285756588 -3.6472980976 -0.8675616955 -0.3651752338 1
36.270639658 -3.6472980976 0 -0 0
39.5127036572 -3.6472980976 0 -0 0
42.7547676563 -3.6472980976 0 -0 0
-35.0547683239 -6.8893620968 0 -0 0
-31.8127043247 -6.8893620968 0 -0 0
-28.5706403255 -6.8893620968 -1.873287091 0.2807448872 1
-25.3285763264 -6.8893620968 -2.8029010033 0.6290888313 1
-22.0865123272 -6.8893620968 -2.8660054082 1.3661226814 1
-18.844448328 -6.8893620968 -1.653379128 2.6234349818 1
-15.6023843288 -6.8893620968 0.6150315277 3.5542971172 1
-12.3603203297 -6.8893620968 1.5726060575 3.8058273327 1
-9.1182563305 -6.8893620968 0.225895674 3.2560687482 1
-5.8761923313 -6.8893620968 -1.2002350855 1.735011069 1
-2.6341283321 -6.8893620968 -1.5864165245 0.0417596107 1
0.607935667 -6.8893620968 -1.205950748 -1.1857183036 1
3.8499996662 -6.8893620968 -0.3607593128 -1.8505740524 1
7.0920636654 -6.8893620968 0.590103301 -1.9606661718 1
10.3341276646 -6.8893620968 1.6024319138 -1.4090803929 1
13.5761916637 -6.8893620968 1.6422784281 -0.5442276342 1
16.8182556629 -6.8893620968 1.1274278907 0.5527947118 1
20.0603196621 -6.8893620968 0.6652401194 1.4647469408 1
23.3023836613 -6.8893620968 -0.3653992738 2.0056829681 1
26.5444476604 -6.8893620968 -1.4353247793 2.0844914613 1
29.7865116596 -6.8893620968 -1.7723561553 1.4956356285 1
33.0285756588 -6.8893620968 -1.4406818117 0.8756105295 1
36.270639658 -6.8893620968 0 -0 0
39.5127036572 -6.8893620968 0 -0 0
42.7547676563 -6.8893620968 0 -0 0
-35.0547683239 -10.131426096 0 -0 0
-31.8127043247 -10.131426096 0 -0 0
-28.5706403255 -10.131426096 -1.2393107451 0.0624726458 1
-25.3285763264 -10.131426096 -2.863566029 0.4290102597 1
-22.0865123272 -10.131426096 -3.5188371978 1.614387106 1
-18.844448328 -10.131426096 -2.2399374939 3.3192438072 1
-15.6023843288 -10.131426096 0.2854614845 4.080426424 1
-12.3603203297 -10.131426096 0.6099234831 3.7563830285 1
-9.1182563305 -10.131426096 -1.3194203009 2.781139833 1
-5.8761923313 -10.131426096 -2.6985203948 1.4505264382 1
-2.6341283321 -10.131426096 -2.1889602365 0.0678794984 1
0.607935667 -10.131426096 -1.0864928046 -0.960245573 1
3.8499996662 -10.131426096 -0.3338514495 -1.3074092496 1
7.0920636654 -10.131426096 0.3243696802 -1.2471456541 1
10.3341276646 -10.131426096 1.1633838232 -0.8088512076 1
13.5761916637 -10.131426096 1.7778227922 -0.1052933093 1
16.8182556629 -10.131426096 2.0802550819 0.7453560915 1
20.0603196621 -10.131426096 2.1962240247 1.6204828365 1
23.3023836613 -10.131426096 0.8549522732 2.3661567205 1
26.5444476604 -10.131426096 -0.9831984279 2.7900054167 1
29.7865116596 -10.131426096 -2.0522994465 2.2517876108 1
33.0285756588 -10.131426096 -1.9458596022 1.5112889908 1
36.270639658 -10.131426096 0 -0 0
39.5127036572 -10.131426096 0 -0 0
42.7547676563 -10.131426096 0 -0 0
-35.0547683239 -13.3734900951 0 -0 0
-31.8127043247 -13.3734900951 0 -0 0
-28.5706403255 -13.3734900951 0 -0 0
-25.3285763264 -13.3734900951 -3.7384549957 1.1056119181 1
-22.0865123272 -13.3734900951 -4.5300599527 2.526290081 1
-18.844448328 -13.3734900951 -2.8109398733 3.9816712732 1
-15.6023843288 -13.3734900951 -0.2077352224 3.9496380792 1
-12.3603203297 -13.3734900951 0.0551083444 3.0783784402 1
-9.1182563305 -13.3734900951 -1.8859738856 2.1994940428 1
-5.8761923313 -13.3734900951 -2.9716571871 1.6392531329 1
-2.6341283321 -13.3734900951 -2.2089179149 0.8843079323 1
0.607935667 -13.3734900951 -1.0113151487 -0.1342796194 1
3.8499996662 -13.3734900951 -0.4811427045 -0.7238998058 1
7.0920636654 -13.3734900951 -0.0897437674 -0.8163382055 1
10.3341276646 -13.3734900951 0.6590520706 -0.5653897919 1
13.5761916637 -13.3734900951 1.8405298431 -0.1043013302 1
16.8182556629 -13.3734900951 2.8421421264 0.4644122064 1
20.0603196621 -13.3734900951 3.4136661085 1.2507099135 1
23.3023836613 -13.3734900951 2.146822747 2.1427260151 1
26.5444476604 -13.3734900951 -0.0127325056 2.7117142989 1
29.7865116596 -13.3734900951 -1.7180851775 2.3750716716 1
33.0285756588 -13.3734900951 -2.0978899303 1.72736442 1
36.270639658 -13.3734900951 0 -0 0
39.5127036572 -13.3734900951 0 -0 0
42.7547676563 -13.3734900951 0 -0 0
-35.0547683239 -16.6155540943 0 -0 0
-31.8127043247 -16.6155540943 0 -0 0
-28.5706403255 -16.6155540943 0 -0 0
-25.3285763264 -16.6155540943 -4.8244980596 0.8760349827 1
-22.0865123272 -16.6155540943 -5.2615219395 2.8132071463 1
-18.844448328 -16.6155540943 -3.4928289291 4.1890951947 1
-15.6023843288 -16.6155540943 -1.1503700268 3.4207194439 1
-12.3603203297 -16.6155540943 -0.5220219693 2.1481132416 1
-9.1182563305 -16.6155540943 -1.7131961532 1.6676017442 1
-5.8761923313 -16.6155540943 -2.2243193077 1.8359113577 1
-2.6341283321 -16.6155540943 -1.6269994723 1.7680254194 1
0.607935667 -16.6155540943 -0.9945375101 0.8761165822 1
3.8499996662 -16.6155540943 -0.7817350429 -0.1160848031 1
7.0920636654 -16.6155540943 -0.5200208572 -0.6585732681 1
10.3341276646 -16.6155540943 0.2905244267 -0.8451076466 1
13.5761916637 -16.6155540943 1.69424122 -0.750361061 1
16.8182556629 -16.6155540943 3.0527158936 -0.4845179867 1
20.0603196621 -16.6155540943 3.8053765352 0.383931188 1
23.3023836613 -16.6155540943 2.820870402 1.3970414121 1
26.5444476604 -16.6155540943 0.5337861086 2.003600332 1
29.7865116596 -16.6155540943 -1.4455564938 1.9406822245 1
33.0285756588 -16.6155540943 0 -0 0
36.270639658 -16.6155540943 0 -0 0
39.5127036572 -16.6155540943 0 -0 0
42.7547676563 -16.6155540943 0 -0 0
-35.0547683239 -19.8576180935 0 -0 0
-31.8127043247 -19.8576180935 0 -0 0
-28.5706403255 -19.8576180935 0 -0 0
-25.3285763264 -19.8576180935 0 -0 0
-22.0865123272 -19.8576180935 -4.7828248039 1.5353575922 1
-18.844448328 -19.8576180935 -3.383591302 3.0660517098 1
-15.6023843288 -19.8576180935 -1.7518166371 2.7143230668 1
-12.3603203297 -19.8576180935 -1.1068562159 1.6972730068 1
-9.1182563305 -19.8576180935 -1.3796366426 1.395233542 1
-5.8761923313 -19.8576180935 -1.1761635401 1.5097422994 1
-2.6341283321 -19.8576180935 -1.0587926111 1.5595386666 1
0.607935667 -19.8576180935 -1.3650512447 1.2152349726 1
3.8499996662 -19.8576180935 -1.339685053 0.6448788218 1
7.0920636654 -19.8576180935 -0.7673706656 -0.0723433902 1
10.3341276646 -19.8576180935 0.1380263641 -0.9908272624 1
13.5761916637 -19.8576180935 1.0727103426 -1.717456084 1
16.8182556629 -19.8576180935 2.2631244284 -1.5610459547 1
20.0603196621 -19.8576180935 2.9607088162 -0.4004319093 1
23.3023836613 -19.8576180935 2.0980720005 0.8868007549 1
26.5444476604 -19.8576180935 -0.114083672 1.4886520413 1
29.7865116596 -19.8576180935 -1.8689799064 1.6076520161 1
33.0285756588 -19.8576180935 0 -0 0
36.270639658 -19.8576180935 0 -0 0
39.5127036572 -19.8576180935 0 -0 0
42.7547676563 -19.8576180935 0 -0 0
-35.0547683239 -23.0996820927 0 -0 0
-31.8127043247 -23.0996820927 0 -0 0
-28.5706403255 -23.0996820927 0 -0 0
-25.3285763264 -23.0996820927 0 -0 0
-22.0865123272 -23.0996820927 -3.9144888569 1.3035809431 1
-18.844448328 -23.0996820927 -3.1366487739 3.0453920193 1
-15.6023843288 -23.0996820927 -2.2956277441 3.2126321587 1
-12.3603203297 -23.0996820927 -1.5311921689 2.4064413508 1
-9.1182563305 -23.0996820927 -0.993577716 1.580891915 1
-5.8761923313 -23.0996820927 -0.2051908622 1.1179976779 1
-2.6341283321 -23.0996820927 -0.354017316 1.3444558675 1
0.607935667 -23.0996820927 -1.3074758275 1.812297177 1
3.8499996662 -23.0996820927 -1.4050179314 1.831803756 1
7.0920636654 -23.0996820927 -0.6134769858 0.9691089676 1
10.3341276646 -23.0996820927 0.1780833028 -0.6442411229 1
13.5761916637 -23.0996820927 0.2627834522 -1.9409748051 1
16.8182556629 -23.0996820927 0.6904474903 -1.7748103296 1
20.0603196621 -23.0996820927 1.1540995987 -0.3705030157 1
23.3023836613 -23.0996820927 0.440660605 0.7730005015 1
26.5444476604 -23.0996820927 -1.3440727047 0.9499704545 1
29.7865116596 -23.0996820927 0 -0 0
33.0285756588 -23.0996820927 0 -0 0
36.270639658 -23.0996820927 0 -0 0
39.5127036572 -23.0996820927 0 -0 0
42.7547676563 -23.0996820927 0 -0 0
-35.0547683239 -26.3417460918 0 -0 0
-31.8127043247 -26.3417460918 0 -0 0
-28.5706403255 -26.3417460918 0 -0 0
-25.3285763264 -26.3417460918 0 -0 0
-22.0865123272 -26.3417460918 0 -0 0
-18.844448328 -26.3417460918 -3.0630528345 3.8900108238 1
-15.6023843288 -26.3417460918 -2.7010470349 4.3332115053 1
-12.3603203297 -26.3417460918 -1.9994004874 3.6368392584 1
-9.1182563305 -26.3417460918 -0.9599665043 2.2822982686 1
-5.8761923313 -26.3417460918 0.2772723046 1.3370118207 1
-2.6341283321 -26.3417460918 0.5551350921 1.7074461449 1
0.607935667 -26.3417460918 -0.3482114864 2.5303051378 1
3.8499996662 -26.3417460918 -0.9998408726 2.2896307483 1
7.0920636654 -26.3417460918 -0.6821423841 0.9622811064 1
10.3341276646 -26.3417460918 -0.3100590484 -0.7475376132 1
13.5761916637 -26.3417460918 -0.5932359738 -1.594575567 1
16.8182556629 -26.3417460918 -0.8509242328 -1.0854922485 1
20.0603196621 -26.3417460918 -0.670140391 0.1375577521 1
23.3023836613 -26.3417460918 -1.0110301167 0.9810615179 1
26.5444476604 -26.3417460918 0 -0 0
29.7865116596 -26.3417460918 0 -0 0
33.0285756588 -26.3417460918 0 -0 0
36.270639658 -26.3417460918 0 -0 0
39.5127036572 -26.3417460918 0 -0 0
42.7547676563 -26.3417460918 0 -0 0
-35.0547683239 -29.583810091 0 -0 0
-31.8127043247 -29.583810091 0 -0 0
-28.5706403255 -29.583810091 0 -0 0
-25.3285763264 -29.583810091 0 -0 0
-22.0865123272 -29.583810091 0 -0 0
-18.844448328 -29.583810091 0 -0 0
-15.6023843288 -29.583810091 -3.3197106076 5.0017590079 1
-12.3603203297 -29.583810091 -3.0114064765 3.950443959 1
-9.1182563305 -29.583810091 -1.8841143836 2.2961408924 1
-5.8761923313 -29.583810091 -0.0339311604 1.2884780187 1
-2.6341283321 -29.583810091 1.1047369694 1.6097192533 1
0.607935667 -29.583810091 0.5478756066 2.0070442679 1
3.8499996662 -29.583810091 -0.9881025493 0.9369685092 1
7.0920636654 -29.583810091 -1.6057449584 -0.8533419478 1
10.3341276646 -29.583810091 -1.5558670673 -1.7750894738 1
13.5761916637 -29.583810091 -1.4014773744 -1.0189911615 1
16.8182556629 -29.583810091 -1.7034395424 0.2029349498 1
20.0603196621 -29.583810091 -1.7481906309 1.113053021 1
23.3023836613 -29.583810091 0 -0 0
26.5444476604 -29.583810091 0 -0 0
29.7865116596 -29.583810091 0 -0 0
33.0285756588 -29.583810091 0 -0 0
36.270639658 -29.583810091 0 -0 0
39.5127036572 -29.583810091 0 -0 0
42.7547676563 -29.583810091 0 -0 0
-35.0547683239 -32.8258740902 0 -0 0
-31.8127043247 -32.8258740902 0 -0 0
-28.5706403255 -32.8258740902 0 -0 0
-25.3285763264 -32.8258740902 0 -0 0
-22.0865123272 -32.8258740902 0 -0 0
-18.844448328 -32.8258740902 0 -0 0
-15.6023843288 -32.8258740902 0 -0 0
-12.3603203297 -32.8258740902 0 -0 0
-9.1182563305 -32.8258740902 -2.7670398047 1.5495442774 1
-5.8761923313 -32.8258740902 -0.5912263695 0.4176288681 1
-2.6341283321 -32.8258740902 0.9203008525 -0.187047055 1
0.607935667 -32.8258740902 0.5625448309 -1.1618206761 1
3.8499996662 -32.8258740902 -1.9370842988 -2.8670552561 1
7.0920636654 -32.8258740902 -3.3046821116 -4.0757182622 1
10.3341276646 -32.8258740902 -3.5271737814 -3.261566787 1
13.5761916637 -32.8258740902 -2.4932891669 -0.9263779381 1
16.8182556629 -32.8258740902 0 -0 0
20.0603196621 -32.8258740902 0 -0 0
23.3023836613 -32.8258740902 0 -0 0
26.5444476604 -32.8258740902 0 -0 0
29.7865116596 -32.8258740902 0 -0 0
33.0285756588 -32.8258740902 0 -0 0
36.270639658 -32.8258740902 0 -0 0
39.5127036572 -32.8258740902 0 -0 0
42.7547676563 -32.8258740902 0 -0 0
-35.0547683239 -36.0679380894 0 -0 0
-31.8127043247 -36.0679380894 0 -0 0
-28.5706403255 -36.0679380894 0 -0 0
-25.3285763264 -36.0679380894 0 -0 0
-22.0865123272 -36.0679380894 0 -0 0
-18.844448328 -36.0679380894 0 -0 0
-15.6023843288 -36.0679380894 0 -0 0
-12.3603203297 -36.0679380894 0 -0 0
-9.1182563305 -36.0679380894 0 -0 0
-5.8761923313 -36.0679380894 0 -0 0
-2.6341283321 -36.0679380894 0 -0 0
0.607935667 -36.0679380894 0 -0 0
3.8499996662 -36.0679380894 0 -0 0
7.0920636654 -36.0679380894 0 -0 0
10.3341276646 -36.0679380894 0 -0 0
13.5761916637 -36.0679380894 0 -0 0
16.8182556629 -36.0679380894 0 -0 0
20.0603196621 -36.0679380894 0 -0 0
23.3023836613 -36.0679380894 0 -0 0
26.5444476604 -36.0679380894 0 -0 0
29.7865116596 -36.0679380894 0 -0 0
33.0285756588 -36.0679380894 0 -0 0
36.270639658 -36.0679380894 0 -0 0
39.5127036572 -36.0679380894 0 -0 0
42.7547676563 -36.0679380894 0 -0 0
-35.0547683239 -39.3100020885 0 -0 0
-31.8127043247 -39.3100020885 0 -0 0
-28.5706403255 -39.3100020885 0 -0 0
-25.3285763264 -39.3100020885 0 -0 0
-22.0865123272 -39.3100020885 0 -0 0
-18.844448328 -39.3100020885 0 -0 0
-15.6023843288 -39.3100020885 0 -0 0
-12.3603203297 -39.3100020885 0 -0 0
-9.1182563305 -39.3100020885 0 -0 0
-5.8761923313 -39.3100020885 0 -0 0
-2.6341283321 -39.3100020885 0 -0 0
0.607935667 -39.3100020885 0 -0 0
3.8499996662 -39.3100020885 0 -0 0
7.0920636654 -39.3100020885 0 -0 0
10.3341276646 -39.3100020885 0 -0 0
13.5761916637 -39.3100020885 0 -0 0
16.8182556629 -39.3100020885 0 -0 0
20.0603196621 -39.3100020885 0 -0 0
23.3023836613 -39.3100020885 0 -0 0
26.5444476604 -39.3100020885 0 -0 0
29.7865116596 -39.3100020885 0 -0 0
33.0285756588 -39.3100020885 0 -0 0
36.270639658 -39.3100020885 0 -0 0
39.5127036572 -39.3100020885 0 -0 0
42.7547676563 -39.3100020885 0 -0 0
-35.0547683239 -42.5520660877 0 -0 0
-31.8127043247 -42.5520660877 0 -0 0
-28.5706403255 -42.5520660877 0 -0 0
-25.3285763264 -42.5520660877 0 -0 0
-22.0865123272 -42.5520660877 0 -0 0
-18.844448328 -42.5520660877 0 -0 0
-15.6023843288 -42.5520660877 0 -0 0
-12.3603203297 -42.5520660877 0 -0 0
-9.1182563305 -42.5520660877 0 -0 0
-5.8761923313 -42.5520660877 0 -0 0
-2.6341283321 -42.5520660877 0 -0 0
0.607935667 -42.5520660877 0 -0 0
3.8499996662 -42.5520660877 0 -0 0
7.0920636654 -42.5520660877 0 -0 0
10.3341276646 -42.5520660877 0 -0 0
13.5761916637 -42.5520660877 0 -0 0
16.8182556629 -42.5520660877 0 -0 0
20.0603196621 -42.5520660877 0 -0 0
23.3023836613 -42.5520660877 0 -0 0
26.5444476604 -42.5520660877 0 -0 0
29.7865116596 -42.5520660877 0 -0 0
33.0285756588 -42.5520660877 0 -0 0
36.270639658 -42.5520660877 0 -0 0
39.5127036572 -42.5520660877 0 -0 0
42.7547676563 -42.5520660877 0 -0 0
