TITLE = "B00090"
VARIABLES = "x", "y", "Vx", "Vy", "isValid"
ZONE T="Frame 0", I=25, J=25, F=POINT
-35.0547683239 35.2574698925 0 -0 0
-31.8127043247 35.2574698925 0 -0 0
-28.5706403255 35.2574698925 0 -0 0
-25.3285763264 35.2574698925 0 -0 0
-22.0865123272 35.2574698925 0 -0 0
-18.844448328 35.2574698925 0 -0 0
-15.6023843288 35.2574698925 0 -0 0
-12.3603203297 35.2574698925 0 -0 0
-9.1182563305 35.2574698925 0 -0 0
-5.8761923313 35.2574698925 0 -0 0
-2.6341283321 35.2574698925 0 -0 0
0.607935667 35.2574698925 0 -0 0
3.8499996662 35.2574698925 0 -0 0
7.0920636654 35.2574698925 0 -0 0
10.3341276646 35.2574698925 0 -0 0
13.5761916637 35.2574698925 0 -0 0
16.8182556629 35.2574698925 0 -0 0
20.0603196621 35.2574698925 0 -0 0
23.3023836613 35.2574698925 0 -0 0
26.5444476604 35.2574698925 0 -0 0
29.7865116596 35.2574698925 0 -0 0
33.0285756588 35.2574698925 0 -0 0
36.270639658 35.2574698925 0 -0 0
39.5127036572 35.2574698925 0 -0 0
42.7547676563 35.2574698925 0 -0 0
-35.0547683239 32.0154058933 0 -0 0
-31.8127043247 32.0154058933 0 -0 0
-28.5706403255 32.0154058933 0 -0 0
-25.3285763264 32.0154058933 0 -0 0
-22.0865123272 32.0154058933 0 -0 0
-18.844448328 32.0154058933 0 -0 0
-15.6023843288 32.0154058933 0 -0 0
-12.3603203297 32.0154058933 0 -0 0
-9.1182563305 32.0154058933 0 -0 0
-5.8761923313 32.0154058933 0 -0 0
-2.6341283321 32.0154058933 0 -0 0
0.607935667 32.0154058933 0 -0 0
3.8499996662 32.0154058933 0 -0 0
7.0920636654 32.0154058933 0 -0 0
10.3341276646 32.0154058933 0 -0 0
13.5761916637 32.0154058933 0 -0 0
16.8182556629 32.0154058933 0 -0 0
20.0603196621 32.0154058933 0 -0 0
23.3023836613 32.0154058933 0 -0 0
26.5444476604 32.0154058933 0 -0 0
29.7865116596 32.0154058933 0 -0 0
33.0285756588 32.0154058933 0 -0 0
36.270639658 32.0154058933 0 -0 0
39.5127036572 32.0154058933 0 -0 0
42.7547676563 32.0154058933 0 -0 0
-35.0547683239 28.7733418941 0 -0 0
-31.8127043247 28.7733418941 0 -0 0
-28.5706403255 28.7733418941 0 -0 0
-25.3285763264 28.7733418941 0 -0 0
-22.0865123272 28.7733418941 0 -0 0
-18.844448328 28.7733418941 0 -0 0
-15.6023843288 28.7733418941 0 -0 0
-12.3603203297 28.7733418941 0 -0 0
-9.1182563305 28.7733418941 0 -0 0
-5.8761923313 28.7733418941 0 -0 0
-2.6341283321 28.7733418941 0 -0 0
0.607935667 28.7733418941 0 -0 0
3.8499996662 28.7733418941 0 -0 0
7.0920636654 28.7733418941 0 -0 0
10.3341276646 28.7733418941 0 -0 0
13.5761916637 28.7733418941 0 -0 0
16.8182556629 28.7733418941 0 -0 0
20.0603196621 28.7733418941 0 -0 0
23.3023836613 28.7733418941 0 -0 0
26.5444476604 28.7733418941 0 -0 0
29.7865116596 28.7733418941 0 -0 0
33.0285756588 28.7733418941 0 -0 0
36.270639658 28.7733418941 0 -0 0
39.5127036572 28.7733418941 0 -0 0
42.7547676563 28.7733418941 0 -0 0
-35.0547683239 25.531277895 0 -0 0
-31.8127043247 25.531277895 0 -0 0
-28.5706403255 25.531277895 0 -0 0
-25.3285763264 25.531277895 0 -0 0
-22.0865123272 25.531277895 0 -0 0
-18.844448328 25.531277895 0 -0 0
-15.6023843288 25.531277895 0 -0 0
-12.3603203297 25.531277895 0 -0 0
-9.1182563305 25.531277895 7.3847582844 9.7876261666 1
-5.8761923313 25.531277895 6.9552071356 9.093601509 1
-2.6341283321 25.531277895 5.576344669 7.4568097969 1
0.607935667 25.531277895 4.5397972393 6.1822044451 1
3.8499996662 25.531277895 5.02857527 6.3154750445 1
7.0920636654 25.531277895 8.0547279279 8.4408056503 1
10.3341276646 25.531277895 7.5678521237 3.0400374024 1
13.5761916637 25.531277895 4.5798617548 -1.1809414502 1
16.8182556629 25.531277895 0 -0 0
20.0603196621 25.531277895 0 -0 0
23.3023836613 25.531277895 0 -0 0
26.5444476604 25.531277895 0 -0 0
29.7865116596 25.531277895 0 -0 0
33.0285756588 25.531277895 0 -0 0
36.270639658 25.531277895 0 -0 0
39.5127036572 25.531277895 0 -0 0
42.7547676563 25.531277895 0 -0 0
-35.0547683239 22.2892138958 0 -0 0
-31.8127043247 22.2892138958 0 -0 0
-28.5706403255 22.2892138958 0 -0 0
-25.3285763264 22.2892138958 0 -0 0
-22.0865123272 22.2892138958 0 -0 0
-18.844448328 22.2892138958 0 -0 0
-15.6023843288 22.2892138958 3.7321308471 8.4825127234 1
-12.3603203297 22.2892138958 5.1220579317 9.6317492647 1
-9.1182563305 22.2892138958 6.1768129914 10.5964154764 1
-5.8761923313 22.2892138958 4.9514692696 9.9173827799 1
-2.6341283321 22.2892138958 3.0956262005 7.8221423795 1
0.607935667 22.2892138958 1.758006875 5.9115924811 1
3.8499996662 22.2892138958 1.6248952473 7.0338844355 1
7.0920636654 22.2892138958 4.1412762374 9.4587052206 1
10.3341276646 22.2892138958 3.658334419 4.1318611216 1
13.5761916637 22.2892138958 2.372553033 -1.4995391182 1
16.8182556629 22.2892138958 -1.6957106145 -6.6532470812 1
20.0603196621 22.2892138958 -3.3094748168 -3.0693404483 1
23.3023836613 22.2892138958 0 -0 0
26.5444476604 22.2892138958 0 -0 0
29.7865116596 22.2892138958 0 -0 0
33.0285756588 22.2892138958 0 -0 0
36.270639658 22.2892138958 0 -0 0
39.5127036572 22.2892138958 0 -0 0
42.7547676563 22.2892138958 0 -0 0
-35.0547683239 19.0471498966 0 -0 0
-31.8127043247 19.0471498966 0 -0 0
-28.5706403255 19.0471498966 0 -0 0
-25.3285763264 19.0471498966 0 -0 0
-22.0865123272 19.0471498966 0 -0 0
-18.844448328 19.0471498966 2.7366684925 6.3489518172 1
-15.6023843288 19.0471498966 2.4730136959 5.9408475185 1
-12.3603203297 19.0471498966 3.2336097928 6.9441814679 1
-9.1182563305 19.0471498966 4.6923811756 8.1990507659 1
-5.8761923313 19.0471498966 3.7445418188 9.0362049917 1
-2.6341283321 19.0471498966 1.9817596002 7.8809676804 1
0.607935667 19.0471498966 0.3368445502 6.3728377445 1
3.8499996662 19.0471498966 -0.3918562641 6.7718590621 1
7.0920636654 19.0471498966 0.9218612822 9.3226996419 1
10.3341276646 19.0471498966 0.6915403648 4.5608455276 1
13.5761916637 19.0471498966 0.9811995048 -0.6292197981 1
16.8182556629 19.0471498966 -1.6848540336 -6.3500031748 1
20.0603196621 19.0471498966 -3.5323725968 -2.9860165824 1
23.3023836613 19.0471498966 -5.6007360451 -0.2645789805 1
26.5444476604 19.0471498966 0 -0 0
29.7865116596 19.0471498966 0 -0 0
33.0285756588 19.0471498966 0 -0 0
36.270639658 19.0471498966 0 -0 0
39.5127036572 19.0471498966 0 -0 0
42.7547676563 19.0471498966 0 -0 0
-35.0547683239 15.8050858974 0 -0 0
-31.8127043247 15.8050858974 0 -0 0
-28.5706403255 15.8050858974 0 -0 0
-25.3285763264 15.8050858974 0 -0 0
-22.0865123272 15.8050858974 2.4183381175 4.8460333783 1
-18.844448328 15.8050858974 1.5216454069 4.3254733682 1
-15.6023843288 15.8050858974 0.802272372 3.6598543887 1
-12.3603203297 15.8050858974 1.6260740239 3.6170965619 1
-9.1182563305 15.8050858974 3.6282248894 4.8507300663 1
-5.8761923313 15.8050858974 4.0885169259 6.2233438695 1
-2.6341283321 15.8050858974 3.095338451 6.8427529339 1
0.607935667 15.8050858974 1.153698093 5.702017232 1
3.8499996662 15.8050858974 -0.3275839525 5.9899116794 1
7.0920636654 15.8050858974 -1.359058627 6.7829898052 1
10.3341276646 15.8050858974 -0.8950972559 6.0678353353 1
13.5761916637 15.8050858974 0.1283621189 1.4372786377 1
16.8182556629 15.8050858974 -0.8068736468 -2.6127701333 1
20.0603196621 15.8050858974 -3.266344999 -2.2985135426 1
23.3023836613 15.8050858974 -5.5036457955 0.4103473786 1
26.5444476604 15.8050858974 -6.0089436075 2.0334621192 1
29.7865116596 15.8050858974 0 -0 0
33.0285756588 15.8050858974 0 -0 0
36.270639658 15.8050858974 0 -0 0
39.5127036572 15.8050858974 0 -0 0
42.7547676563 15.8050858974 0 -0 0
-35.0547683239 12.5630218983 0 -0 0
-31.8127043247 12.5630218983 0 -0 0
-28.5706403255 12.5630218983 0 -0 0
-25.3285763264 12.5630218983 0 -0 0
-22.0865123272 12.5630218983 0.9193985026 2.2173265113 1
-18.844448328 12.5630218983 0.7832057962 1.5468340574 1
-15.6023843288 12.5630218983 0.3668507406 1.6474573155 1
-12.3603203297 12.5630218983 1.4225128302 1.8846598395 1
-9.1182563305 12.5630218983 3.6001942217 2.5905107607 1
-5.8761923313 12.5630218983 5.0720269566 3.9646206802 1
-2.6341283321 12.5630218983 4.8447160109 5.2441132447 1
0.607935667 12.5630218983 2.7891270711 4.8242882108 1
3.8499996662 12.5630218983 0.0118972703 4.1741189345 1
7.0920636654 12.5630218983 -2.0247689436 4.4545774876 1
10.3341276646 12.5630218983 -1.6986708414 3.5316298227 1
13.5761916637 12.5630218983 -0.1988933221 0.4057825632 1
16.8182556629 12.5630218983 -0.2611043787 -2.6340161928 1
20.0603196621 12.5630218983 -2.1882473545 -1.491206158 1
23.3023836613 12.5630218983 -3.8214563888 1.0896018129 1
26.5444476604 12.5630218983 -4.2389567811 2.1350366415 1
29.7865116596 12.5630218983 -4.3802662506 0.1848934816 1
33.0285756588 12.5630218983 0 -0 0
36.270639658 12.5630218983 0 -0 0
39.5127036572 12.5630218983 0 -0 0
42.7547676563 12.5630218983 0 -0 0
-35.0547683239 9.3209578991 0 -0 0
-31.8127043247 9.3209578991 0 -0 0
-28.5706403255 9.3209578991 0 -0 0
-25.3285763264 9.3209578991 0.4138604213 2.8666859826 1
-22.0865123272 9.3209578991 1.1807412635 0.6279765949 1
-18.844448328 9.3209578991 1.739494285 -0.3561666056 1
-15.6023843288 9.3209578991 1.2706674409 0.3913259052 1
-12.3603203297 9.3209578991 1.6614566465 1.6627106063 1
-9.1182563305 9.3209578991 3.2156189564 2.4874956792 1
-5.8761923313 9.3209578991 4.5296348201 2.7828596873 1
-2.6341283321 9.3209578991 4.4765663213 3.2121792476 1
0.607935667 9.3209578991 2.7200496747 2.3058802926 1
3.8499996662 9.3209578991 0.2692699317 1.1202263779 1
7.0920636654 9.3209578991 -1.6634856882 0.4444138038 1
10.3341276646 9.3209578991 -2.0801693308 -0.7465520787 1
13.5761916637 9.3209578991 -0.8421961831 -2.1009792369 1
16.8182556629 9.3209578991 0.4615801533 -2.806952746 1
20.0603196621 9.3209578991 0.3035038396 -0.9865566127 1
23.3023836613 9.3209578991 -0.8914149377 1.0567292236 1
26.5444476604 9.3209578991 -2.0489842883 0.8690353172 1
29.7865116596 9.3209578991 -3.3324573374 -1.5147193394 1
33.0285756588 9.3209578991 0 -0 0
36.270639658 9.3209578991 0 -0 0
39.5127036572 9.3209578991 0 -0 0
42.7547676563 9.3209578991 0 -0 0
-35.0547683239 6.0788938999 0 -0 0
-31.8127043247 6.0788938999 0 -0 0
-28.5706403255 6.0788938999 0 -0 0
-25.3285763264 6.0788938999 1.0739592449 3.7031212875 1
-22.0865123272 6.0788938999 2.2343099226 0.3220615321 1
-18.844448328 6.0788938999 2.6737938646 -0.9771220972 1
-15.6023843288 6.0788938999 1.1529701894 0.1230093136 1
-12.3603203297 6.0788938999 0.188159801 1.7154505936 1
-9.1182563305 6.0788938999 0.8471689205 2.4066753549 1
-5.8761923313 6.0788938999 1.386018009 2.4999940628 1
-2.6341283321 6.0788938999 1.3122961603 2.8091149435 1
0.607935667 6.0788938999 0.4183626218 1.6149088596 1
3.8499996662 6.0788938999 -0.139529359 -1.1557721994 1
7.0920636654 6.0788938999 -0.3490789244 -3.9543812662 1
10.3341276646 6.0788938999 -0.887047667 -5.7656005148 1
13.5761916637 6.0788938999 -0.2813282367 -5.3820880808 1
16.8182556629 6.0788938999 1.3595331269 -4.1071240234 1
20.0603196621 6.0788938999 2.2135191897 -1.9128946191 1
23.3023836613 6.0788938999 1.1766295102 -0.7521303582 1
26.5444476604 6.0788938999 -0.4824481453 -1.7587433085 1
29.7865116596 6.0788938999 -2.318155391 -3.8393182966 1
33.0285756588 6.0788938999 -3.4688056188 -5.5649711656 1
36.270639658 6.0788938999 0 -0 0
39.5127036572 6.0788938999 0 -0 0
42.7547676563 6.0788938999 0 -0 0
-35.0547683239 2.8368299007 0 -0 0
-31.8127043247 2.8368299007 0 -0 0
-28.5706403255 2.8368299007 -2.0061683379 6.089553932 1
-25.3285763264 2.8368299007 0.4122604751 3.3922533777 1
-22.0865123272 2.8368299007 0.9817340909 0.21234297 1
-18.844448328 2.8368299007 0.4487102317 -0.9292410156 1
-15.6023843288 2.8368299007 -1.8511044113 0.9821528072 1
-12.3603203297 2.8368299007 -2.9505787048 3.4221859701 1
-9.1182563305 2.8368299007 -3.0505579232 4.4489604842 1
-5.8761923313 2.8368299007 -3.3828590958 4.2997347326 1
-2.6341283321 2.8368299007 -3.269106247 3.6940540074 1
0.607935667 2.8368299007 -2.2050186523 1.1870580901 1
3.8499996662 2.8368299007 0.4261116287 -3.3852187626 1
7.0920636654 2.8368299007 2.4085153817 -6.8919119042 1
10.3341276646 2.8368299007 2.2377689556 -7.5668031816 1
13.5761916637 2.8368299007 1.7123051261 -6.1426864423 1
16.8182556629 2.8368299007 2.2746845312 -4.8486001764 1
20.0603196621 2.8368299007 2.6098715023 -3.406353104 1
23.3023836613 2.8368299007 1.5466601396 -2.7197211632 1
26.5444476604 2.8368299007 -0.1980452084 -3.5739863702 1
29.7865116596 2.8368299007 -1.6086586865 -4.7852940752 1
33.0285756588 2.8368299007 -2.6151364428 -5.4796239949 1
36.270639658 2.8368299007 0 -0 0
39.5127036572 2.8368299007 0 -0 0
42.7547676563 2.8368299007 0 -0 0
-35.0547683239 -0.4052340984 0 -0 0
-31.8127043247 -0.4052340984 0 -0 0
-28.5706403255 -0.4052340984 -2.9684167592 2.5312233396 1
-25.3285763264 -0.4052340984 -2.031216737 0.606017842 1
-22.0865123272 -0.4052340984 -3.0254473243 -1.4594951347 1
-18.844448328 -0.4052340984 -4.3989560798 -0.9722180513 1
-15.6023843288 -0.4052340984 -5.8756343596 2.4528516037 1
-12.3603203297 -0.4052340984 -5.3942490457 5.2153757338 1
-9.1182563305 -0.4052340984 -6.1941274806 5.8406641881 1
-5.8761923313 -0.4052340984 -7.8902408841 5.1673037502 1
-2.6341283321 -0.4052340984 -7.6812906522 4.1923996341 1
0.607935667 -0.4052340984 -4.126596181 1.0743958512 1
3.8499996662 -0.4052340984 1.0632972648 -4.3331912752 1
7.0920636654 -0.4052340984 4.4358523313 -7.6825920167 1
10.3341276646 -0.4052340984 4.7155080239 -7.2542770133 1
13.5761916637 -0.4052340984 3.7460231401 -5.630477207 1
16.8182556629 -0.4052340984 3.0890130946 -5.1570746021 1
20.0603196621 -0.4052340984 2.5160245491 -4.6668711092 1
23.3023836613 -0.4052340984 1.4702951017 -3.980694193 1
26.5444476604 -0.4052340984 -0.3013030314 -3.692512298 1
29.7865116596 -0.4052340984 -1.45473051 -3.6747020221 1
33.0285756588 -0.4052340984 -2.1383545172 -3.5306922967 1
36.270639658 -0.4052340984 0 -0 0
39.5127036572 -0.4052340984 0 -0 0
42.7547676563 -0.4052340984 0 -0 0
-35.0547683239 -3.6472980976 0 -0 0
-31.8127043247 -3.6472980976 0 -0 0
-28.5706403255 -3.6472980976 -3.4849211014 -0.9471473086 1
-25.3285763264 -3.6472980976 -3.8838907872 -1.9597451016 1
-22.0865123272 -3.6472980976 -6.2616160649 -2.0379180095 1
-18.844448328 -3.6472980976 -8.0640427994 0.0651376077 1
-15.6023843288 -3.6472980976 -8.7103928274 3.77574377 1
-12.3603203297 -3.6472980976 -7.271069749 6.0037580774 1
-9.1182563305 -3.6472980976 -8.9463951371 5.89370672 1
-5.8761923313 -3.6472980976 -11.8217525555 4.8893830089 1
-2.6341283321 -3.6472980976 -10.9911111912 3.4984866945 1
0.607935667 -3.6472980976 -5.4863439878 0.1301399459 1
3.8499996662 -3.6472980976 0.98634616 -5.323318941 1
7.0920636654 -3.6472980976 4.2855250999 -7.7271874548 1
10.3341276646 -3.6472980976 4.9590422451 -6.3571724555 1
13.5761916637 -3.6472980976 4.4978359321 -4.344985684 1
16.8182556629 -3.6472980976 3.7379477352 -4.5064608691 1
20.0603196621 -3.6472980976 2.6054891345 -5.5063705087 1
23.3023836613 -3.6472980976 1.3329795532 -4.8054148016 1
26.5444476604 -3.6472980976 -0.4168489174 -2.863800335 1
29.7865116596 -3.6472980976 -1.3377268164 -1.6205645114 1
33.0285756588 -3.6472980976 -1.4601871829 -1.1191412784 1
36.270639658 -3.6472980976 0 -0 0
39.5127036572 -3.6472980976 0 -0 0
42.7547676563 -3.6472980976 0 -0 0
-35.0547683239 -6.8893620968 0 -0 0
-31.8127043247 -6.8893620968 0 -0 0
-28.5706403255 -6.8893620968 -3.9429262387 -2.1560748148 1
-25.3285763264 -6.8893620968 -4.1235302749 -1.4968874747 1
-22.0865123272 -6.8893620968 -6.3898472736 0.0827677288 1
-18.844448328 -6.8893620968 -8.8486919478 2.2409123095 1
-15.6023843288 -6.8893620968 -10.199247471 4.1374008281 1
-12.3603203297 -6.8893620968 -9.4188695761 4.6872001746 1
-9.1182563305 -6.8893620968 -10.6351206547 4.4381069227 1
-5.8761923313 -6.8893620968 -12.4107507534 4.2433337139 1
-2.6341283321 -6.8893620968 -10.5792157247 3.5901498614 1
0.607935667 -6.8893620968 -5.5260340968 1.0049060038 1
3.8499996662 -6.8893620968 -0.9853542093 -3.2270286927 1
7.0920636654 -6.8893620968 0.7790833239 -5.1843066366 1
10.3341276646 -6.8893620968 2.1108990466 -4.5594650546 1
13.5761916637 -6.8893620968 3.2752682534 -3.3528528299 1
16.8182556629 -6.8893620968 3.502600637 -4.269176821 1
20.0603196621 -6.8893620968 2.3154285643 -6.6100037337 1
23.3023836613 -6.8893620968 0.6075723839 -6.8822667095 1
26.5444476604 -6.8893620968 -1.0778055169 -4.5194597194 1
29.7865116596 -6.8893620968 -1.4144181012 -2.2054437849 1
33.0285756588 -6.8893620968 -0.733881136 -1.3041513091 1
36.270639658 -6.8893620968 0 -0 0
39.5127036572 -6.8893620968 0 -0 0
42.7547676563 -6.8893620968 0 -0 0
-35.0547683239 -10.131426096 0 -0 0
-31.8127043247 -10.131426096 0 -0 0
-28.5706403255 -10.131426096 -4.7371043346 -1.1467770831 1
-25.3285763264 -10.131426096 -3.4731439032 0.9921240979 1
-22.0865123272 -10.131426096 -4.1047257081 3.1697025276 1
-18.844448328 -10.131426096 -6.0086108688 3.9217061462 1
-15.6023843288 -10.131426096 -8.9383798184 3.9129136321 1
-12.3603203297 -10.131426096 -9.7342514999 3.9103993716 1
-9.1182563305 -10.131426096 -10.2009914806 4.2747379654 1
-5.8761923313 -10.131426096 -9.366000962 4.6608268596 1
-2.6341283321 -10.131426096 -6.3902530819 4.4251639313 1
0.607935667 -10.131426096 -3.6133863142 2.5337878732 1
3.8499996662 -10.131426096 -2.995412978 -0.6731200931 1
7.0920636654 -10.131426096 -3.8437414263 -2.792474688 1
10.3341276646 -10.131426096 -2.2925873519 -3.4064711628 1
13.5761916637 -10.131426096 0.6056893305 -3.3549978168 1
16.8182556629 -10.131426096 2.456976265 -5.0584719314 1
20.0603196621 -10.131426096 1.48590272 -8.1924781201 1
23.3023836613 -10.131426096 -0.6104302151 -9.6364559168 1
26.5444476604 -10.131426096 -2.1513187954 -8.3502880466 1
29.7865116596 -10.131426096 -1.733248188 -6.0581883289 1
33.0285756588 -10.131426096 -0.1196662259 -4.3013975202 1
36.270639658 -10.131426096 0 -0 0
39.5127036572 -10.131426096 0 -0 0
42.7547676563 -10.131426096 0 -0 0
-35.0547683239 -13.3734900951 0 -0 0
-31.8127043247 -13.3734900951 0 -0 0
-28.5706403255 -13.3734900951 0 -0 0
-25.3285763264 -13.3734900951 -1.9414385861 2.4906514127 1
-22.0865123272 -13.3734900951 -0.8629417758 4.0808044538 1
-18.844448328 -13.3734900951 -1.3233861414 3.3361117261 1
-15.6023843288 -13.3734900951 -4.3774588057 2.1871523664 1
-12.3603203297 -13.3734900951 -6.2173980527 2.6266877893 1
-9.1182563305 -13.3734900951 -6.1769869092 4.0974812442 1
-5.8761923313 -13.3734900951 -4.1611650733 4.6116316564 1
-2.6341283321 -13.3734900951 -1.4061838755 4.2032876168 1
0.607935667 -13.3734900951 -1.1425351178 3.1419614211 1
3.8499996662 -13.3734900951 -3.1562290264 1.1577475711 1
7.0920636654 -13.3734900951 -5.5340620969 -1.0348542216 1
10.3341276646 -13.3734900951 -4.753735532 -2.7655708631 1
13.5761916637 -13.3734900951 -1.7995323307 -4.080823778 1
16.8182556629 -13.3734900951 0.902661626 -6.4041169925 1
20.0603196621 -13.3734900951 0.6106535381 -9.6330633107 1
23.3023836613 -13.3734900951 -1.2848406897 -11.4323057784 1
26.5444476604 -13.3734900951 -2.6890128851 -10.6362474975 1
29.7865116596 -13.3734900951 -1.6513093243 -8.3054281084 1
33.0285756588 -13.3734900951 0.4939711094 -6.2704925184 1
36.270639658 -13.3734900951 0 -0 0
39.5127036572 -13.3734900951 0 -0 0
42.7547676563 -13.3734900951 0 -0 0
-35.0547683239 -16.6155540943 0 -0 0
-31.8127043247 -16.6155540943 0 -0 0
-28.5706403255 -16.6155540943 0 -0 0
-25.3285763264 -16.6155540943 0.3478067349 2.017023711 1
-22.0865123272 -16.6155540943 2.0955341887 3.0628224537 1
-18.844448328 -16.6155540943 3.0047532125 2.4452229201 1
-15.6023843288 -16.6155540943 0.5680457758 1.1975447181 1
-12.3603203297 -16.6155540943 -1.6752262005 1.528680022 1
-9.1182563305 -16.6155540943 -2.4860999581 2.7996330988 1
-5.8761923313 -16.6155540943 -1.235931198 2.9770356574 1
-2.6341283321 -16.6155540943 0.1648011377 2.3354312318 1
0.607935667 -16.6155540943 -0.4428034784 1.8915478624 1
3.8499996662 -16.6155540943 -2.2624266434 1.1258390031 1
7.0920636654 -16.6155540943 -3.7667130247 -1.0408038882 1
10.3341276646 -16.6155540943 -3.916505821 -3.5474219267 1
13.5761916637 -16.6155540943 -2.4144415724 -5.9001525508 1
16.8182556629 -16.6155540943 -0.6001153914 -7.9041543129 1
20.0603196621 -16.6155540943 -0.5895858501 -10.0721328391 1
23.3023836613 -16.6155540943 -1.6816504425 -10.8643009155 1
26.5444476604 -16.6155540943 -2.4473442047 -9.4978645177 1
29.7865116596 -16.6155540943 -1.2254574779 -7.3852601099 1
33.0285756588 -16.6155540943 0 -0 0
36.270639658 -16.6155540943 0 -0 0
39.5127036572 -16.6155540943 0 -0 0
42.7547676563 -16.6155540943 0 -0 0
-35.0547683239 -19.8576180935 0 -0 0
-31.8127043247 -19.8576180935 0 -0 0
-28.5706403255 -19.8576180935 0 -0 0
-25.3285763264 -19.8576180935 0 -0 0
-22.0865123272 -19.8576180935 3.6234563395 1.8909243548 1
-18.844448328 -19.8576180935 3.8592481964 1.7261219339 1
-15.6023843288 -19.8576180935 1.8653012115 0.7826776264 1
-12.3603203297 -19.8576180935 -0.677354208 0.4096560099 1
-9.1182563305 -19.8576180935 -1.9561852204 1.1170680023 1
-5.8761923313 -19.8576180935 -2.0178508776 1.3471977913 1
-2.6341283321 -19.8576180935 -1.5316817658 0.2318196191 1
0.607935667 -19.8576180935 -1.9898929777 -0.3931746128 1
3.8499996662 -19.8576180935 -2.4462664273 -0.1862703314 1
7.0920636654 -19.8576180935 -2.0236351562 -1.2900882686 1
10.3341276646 -19.8576180935 -1.9049309324 -3.6204502176 1
13.5761916637 -19.8576180935 -1.6018629065 -6.2927564201 1
16.8182556629 -19.8576180935 -1.5042670572 -7.3557912985 1
20.0603196621 -19.8576180935 -1.8189317207 -8.0682258863 1
23.3023836613 -19.8576180935 -2.1672226175 -8.126990799 1
26.5444476604 -19.8576180935 -2.2707312212 -6.6147381643 1
29.7865116596 -19.8576180935 -1.0468110745 -4.6446950722 1
33.0285756588 -19.8576180935 0 -0 0
36.270639658 -19.8576180935 0 -0 0
39.5127036572 -19.8576180935 0 -0 0
42.7547676563 -19.8576180935 0 -0 0
-35.0547683239 -23.0996820927 0 -0 0
-31.8127043247 -23.0996820927 0 -0 0
-28.5706403255 -23.0996820927 0 -0 0
-25.3285763264 -23.0996820927 0 -0 0
-22.0865123272 -23.0996820927 3.2214482241 1.3587880881 1
-18.844448328 -23.0996820927 1.8281600862 1.4240424619 1
-15.6023843288 -23.0996820927 -0.5550878384 0.4836054464 1
-12.3603203297 -23.0996820927 -2.8680450178 -0.6927041198 1
-9.1182563305 -23.0996820927 -3.6164416524 -0.3241914975 1
-5.8761923313 -23.0996820927 -3.7092600445 0.2951364581 1
-2.6341283321 -23.0996820927 -4.1256622784 -0.8860062734 1
0.607935667 -23.0996820927 -4.8697302907 -2.2129373499 1
3.8499996662 -23.0996820927 -5.0441632622 -1.7828727509 1
7.0920636654 -23.0996820927 -3.0539031246 -1.4926725331 1
10.3341276646 -23.0996820927 -1.1333475142 -2.0500428925 1
13.5761916637 -23.0996820927 -0.0727384608 -3.7502638976 1
16.8182556629 -23.0996820927 -0.7083502356 -4.6559743701 1
20.0603196621 -23.0996820927 -1.9347739993 -5.5176920783 1
23.3023836613 -23.0996820927 -2.5522144101 -6.1884099309 1
26.5444476604 -23.0996820927 -2.6440297551 -5.3407149542 1
29.7865116596 -23.0996820927 0 -0 0
33.0285756588 -23.0996820927 0 -0 0
36.270639658 -23.0996820927 0 -0 0
39.5127036572 -23.0996820927 0 -0 0
42.7547676563 -23.0996820927 0 -0 0
-35.0547683239 -26.3417460918 0 -0 0
-31.8127043247 -26.3417460918 0 -0 0
-28.5706403255 -26.3417460918 0 -0 0
-25.3285763264 -26.3417460918 0 -0 0
-22.0865123272 -26.3417460918 0 -0 0
-18.844448328 -26.3417460918 -0.7949012439 0.6815168384 1
-15.6023843288 -26.3417460918 -3.6568678929 -0.2314153016 1
-12.3603203297 -26.3417460918 -5.5262400203 -1.1751372436 1
-9.1182563305 -26.3417460918 -5.2913458332 -1.0024582458 1
-5.8761923313 -26.3417460918 -4.7619504335 -0.4684423981 1
-2.6341283321 -26.3417460918 -5.279115422 -1.541818369 1
0.607935667 -26.3417460918 -6.4016930123 -3.1477671374 1
3.8499996662 -26.3417460918 -6.6273164113 -2.8936861265 1
7.0920636654 -26.3417460918 -4.4290737619 -1.5581129024 1
10.3341276646 -26.3417460918 -1.4296134194 -0.5474247336 1
13.5761916637 -26.3417460918 0.6018910671 -0.9881433113 1
16.8182556629 -26.3417460918 0.3585542019 -1.9004928566 1
20.0603196621 -26.3417460918 -1.1025538624 -3.301195602 1
23.3023836613 -26.3417460918 -2.2917816231 -4.9776747056 1
26.5444476604 -26.3417460918 0 -0 0
29.7865116596 -26.3417460918 0 -0 0
33.0285756588 -26.3417460918 0 -0 0
36.270639658 -26.3417460918 0 -0 0
39.5127036572 -26.3417460918 0 -0 0
42.7547676563 -26.3417460918 0 -0 0
-35.0547683239 -29.583810091 0 -0 0
-31.8127043247 -29.583810091 0 -0 0
-28.5706403255 -29.583810091 0 -0 0
-25.3285763264 -29.583810091 0 -0 0
-22.0865123272 -29.583810091 0 -0 0
-18.844448328 -29.583810091 0 -0 0
-15.6023843288 -29.583810091 -5.5209095587 -1.3410760939 1
-12.3603203297 -29.583810091 -6.3051335745 -1.9056894075 1
-9.1182563305 -29.583810091 -5.5060903077 -1.7183937609 1
-5.8761923313 -29.583810091 -4.5631903993 -1.4958330977 1
-2.6341283321 -29.583810091 -4.6041060857 -2.3330436355 1
0.607935667 -29.583810091 -5.2885371805 -3.7183852973 1
3.8499996662 -29.583810091 -5.5954744259 -3.9322849416 1
7.0920636654 -29.583810091 -4.4473115858 -2.7713361194 1
10.3341276646 -29.583810091 -2.1179116201 -0.964621449 1
13.5761916637 -29.583810091 -0.0087023346 -0.3188386922 1
16.8182556629 -29.583810091 0.5848929363 -1.1387396473 1
20.0603196621 -29.583810091 -0.3040017776 -2.9091488133 1
23.3023836613 -29.583810091 0 -0 0
26.5444476604 -29.583810091 0 -0 0
29.7865116596 -29.583810091 0 -0 0
33.0285756588 -29.583810091 0 -0 0
36.270639658 -29.583810091 0 -0 0
39.5127036572 -29.583810091 0 -0 0
42.7547676563 -29.583810091 0 -0 0
-35.0547683239 -32.8258740902 0 -0 0
-31.8127043247 -32.8258740902 0 -0 0
-28.5706403255 -32.8258740902 0 -0 0
-25.3285763264 -32.8258740902 0 -0 0
-22.0865123272 -32.8258740902 0 -0 0
-18.844448328 -32.8258740902 0 -0 0
-15.6023843288 -32.8258740902 0 -0 0
-12.3603203297 -32.8258740902 0 -0 0
-9.1182563305 -32.8258740902 -5.2556950873 -1.9096132783 1
-5.8761923313 -32.8258740902 -4.1679925571 -1.8943605913 1
-2.6341283321 -32.8258740902 -3.2843146997 -2.260640211 1
0.607935667 -32.8258740902 -3.1160606433 -2.8998677591 1
3.8499996662 -32.8258740902 -3.5910430021 -3.8032143377 1
7.0920636654 -32.8258740902 -3.7353262858 -3.6871537559 1
10.3341276646 -32.8258740902 -2.8315264942 -2.7470410624 1
13.5761916637 -32.8258740902 -1.3150885082 -1.9168258875 1
16.8182556629 -32.8258740902 -0.4964950697 -2.0883670216 1
20.0603196621 -32.8258740902 0 -0 0
23.3023836613 -32.8258740902 0 -0 0
26.5444476604 -32.8258740902 0 -0 0
29.7865116596 -32.8258740902 0 -0 0
33.0285756588 -32.8258740902 0 -0 0
36.270639658 -32.8258740902 0 -0 0
39.5127036572 -32.8258740902 0 -0 0
42.7547676563 -32.8258740902 0 -0 0
-35.0547683239 -36.0679380894 0 -0 0
-31.8127043247 -36.0679380894 0 -0 0
-28.5706403255 -36.0679380894 0 -0 0
-25.3285763264 -36.0679380894 0 -0 0
-22.0865123272 -36.0679380894 0 -0 0
-18.844448328 -36.0679380894 0 -0 0
-15.6023843288 -36.0679380894 0 -0 0
-12.3603203297 -36.0679380894 0 -0 0
-9.1182563305 -36.0679380894 0 -0 0
-5.8761923313 -36.0679380894 0 -0 0
-2.6341283321 -36.0679380894 0 -0 0
0.607935667 -36.0679380894 0 -0 0
3.8499996662 -36.0679380894 0 -0 0
7.0920636654 -36.0679380894 0 -0 0
10.3341276646 -36.0679380894 0 -0 0
13.5761916637 -36.0679380894 0 -0 0
16.8182556629 -36.0679380894 0 -0 0
20.0603196621 -36.0679380894 0 -0 0
23.3023836613 -36.0679380894 0 -0 0
26.5444476604 -36.0679380894 0 -0 0
29.7865116596 -36.0679380894 0 -0 0
33.0285756588 -36.0679380894 0 -0 0
36.270639658 -36.0679380894 0 -0 0
39.5127036572 -36.0679380894 0 -0 0
42.7547676563 -36.0679380894 0 -0 0
-35.0547683239 -39.3100020885 0 -0 0
-31.8127043247 -39.3100020885 0 -0 0
-28.5706403255 -39.3100020885 0 -0 0
-25.3285763264 -39.3100020885 0 -0 0
-22.0865123272 -39.3100020885 0 -0 0
-18.844448328 -39.3100020885 0 -0 0
-15.6023843288 -39.3100020885 0 -0 0
-12.3603203297 -39.3100020885 0 -0 0
-9.1182563305 -39.3100020885 0 -0 0
-5.8761923313 -39.3100020885 0 -0 0
-2.6341283321 -39.3100020885 0 -0 0
0.607935667 -39.3100020885 0 -0 0
3.8499996662 -39.3100020885 0 -0 0
7.0920636654 -39.3100020885 0 -0 0
10.3341276646 -39.3100020885 0 -0 0
13.5761916637 -39.3100020885 0 -0 0
16.8182556629 -39.3100020885 0 -0 0
20.0603196621 -39.3100020885 0 -0 0
23.3023836613 -39.3100020885 0 -0 0
26.5444476604 -39.3100020885 0 -0 0
29.7865116596 -39.3100020885 0 -0 0
33.0285756588 -39.3100020885 0 -0 0
36.270639658 -39.3100020885 0 -0 0
39.5127036572 -39.3100020885 0 -0 0
42.7547676563 -39.3100020885 0 -0 0
-35.0547683239 -42.5520660877 0 -0 0
-31.8127043247 -42.5520660877 0 -0 0
-28.5706403255 -42.5520660877 0 -0 0
-25.3285763264 -42.5520660877 0 -0 0
-22.0865123272 -42.5520660877 0 -0 0
-18.844448328 -42.5520660877 0 -0 0
-15.6023843288 -42.5520660877 0 -0 0
-12.3603203297 -42.5520660877 0 -0 0
-9.1182563305 -42.5520660877 0 -0 0
-5.8761923313 -42.5520660877 0 -0 0
-2.6341283321 -42.5520660877 0 -0 0
0.607935667 -42.5520660877 0 -0 0
3.8499996662 -42.5520660877 0 -0 0
7.0920636654 -42.5520660877 0 -0 0
10.3341276646 -42.5520660877 0 -0 0
13.5761916637 -42.5520660877 0 -0 0
16.8182556629 -42.5520660877 0 -0 0
20.0603196621 -42.5520660877 0 -0 0
23.3023836613 -42.5520660877 0 -0 0
26.5444476604 -42.5520660877 0 -0 0
29.7865116596 -42.5520660877 0 -0 0
33.0285756588 -42.5520660877 0 -0 0
36.270639658 -42.5520660877 0 -0 0
39.5127036572 -42.5520660877 0 -0 0
42.7547676563 -42.5520660877 0 -0 0
