TITLE = "B00090"
VARIABLES = "x", "y", "Vx", "Vy", "isValid"
ZONE T="Frame 0", I=25, J=25, F=POINT
-35.0547683239 35.2574698925 0 -0 0
-31.8127043247 35.2574698925 0 -0 0
-28.5706403255 35.2574698925 0 -0 0
-25.3285763264 35.2574698925 0 -0 0
-22.0865123272 35.2574698925 0 -0 0
-18.844448328 35.2574698925 0 -0 0
-15.6023843288 35.2574698925 0 -0 0
-12.3603203297 35.2574698925 0 -0 0
-9.1182563305 35.2574698925 0 -0 0
-5.8761923313 35.2574698925 0 -0 0
-2.6341283321 35.2574698925 0 -0 0
0.607935667 35.2574698925 0 -0 0
3.8499996662 35.2574698925 0 -0 0
7.0920636654 35.2574698925 0 -0 0
10.3341276646 35.2574698925 0 -0 0
13.5761916637 35.2574698925 0 -0 0
16.8182556629 35.2574698925 0 -0 0
20.0603196621 35.2574698925 0 -0 0
23.3023836613 35.2574698925 0 -0 0
26.5444476604 35.2574698925 0 -0 0
29.7865116596 35.2574698925 0 -0 0
33.0285756588 35.2574698925 0 -0 0
36.270639658 35.2574698925 0 -0 0
39.5127036572 35.2574698925 0 -0 0
42.7547676563 35.2574698925 0 -0 0
-35.0547683239 32.0154058933 0 -0 0
-31.8127043247 32.0154058933 0 -0 0
-28.5706403255 32.0154058933 0 -0 0
-25.3285763264 32.0154058933 0 -0 0
-22.0865123272 32.0154058933 0 -0 0
-18.844448328 32.0154058933 0 -0 0
-15.6023843288 32.0154058933 0 -0 0
-12.3603203297 32.0154058933 0 -0 0
-9.1182563305 32.0154058933 0 -0 0
-5.8761923313 32.0154058933 0 -0 0
-2.6341283321 32.0154058933 0 -0 0
0.607935667 32.0154058933 0 -0 0
3.8499996662 32.0154058933 0 -0 0
7.0920636654 32.0154058933 0 -0 0
10.3341276646 32.0154058933 0 -0 0
13.5761916637 32.0154058933 0 -0 0
16.8182556629 32.0154058933 0 -0 0
20.0603196621 32.0154058933 0 -0 0
23.3023836613 32.0154058933 0 -0 0
26.5444476604 32.0154058933 0 -0 0
29.7865116596 32.0154058933 0 -0 0
33.0285756588 32.0154058933 0 -0 0
36.270639658 32.0154058933 0 -0 0
39.5127036572 32.0154058933 0 -0 0
42.7547676563 32.0154058933 0 -0 0
-35.0547683239 28.7733418941 0 -0 0
-31.8127043247 28.7733418941 0 -0 0
-28.5706403255 28.7733418941 0 -0 0
-25.3285763264 28.7733418941 0 -0 0
-22.0865123272 28.7733418941 0 -0 0
-18.844448328 28.7733418941 0 -0 0
-15.6023843288 28.7733418941 0 -0 0
-12.3603203297 28.7733418941 0 -0 0
-9.1182563305 28.7733418941 0 -0 0
-5.8761923313 28.7733418941 0 -0 0
-2.6341283321 28.7733418941 0 -0 0
0.607935667 28.7733418941 0 -0 0
3.8499996662 28.7733418941 0 -0 0
7.0920636654 28.7733418941 0 -0 0
10.3341276646 28.7733418941 0 -0 0
13.5761916637 28.7733418941 0 -0 0
16.8182556629 28.7733418941 0 -0 0
20.0603196621 28.7733418941 0 -0 0
23.3023836613 28.7733418941 0 -0 0
26.5444476604 28.7733418941 0 -0 0
29.7865116596 28.7733418941 0 -0 0
33.0285756588 28.7733418941 0 -0 0
36.270639658 28.7733418941 0 -0 0
39.5127036572 28.7733418941 0 -0 0
42.7547676563 28.7733418941 0 -0 0
-35.0547683239 25.531277895 0 -0 0
-31.8127043247 25.531277895 0 -0 0
-28.5706403255 25.531277895 0 -0 0
-25.3285763264 25.531277895 0 -0 0
-22.0865123272 25.531277895 0 -0 0
-18.844448328 25.531277895 0 -0 0
-15.6023843288 25.531277895 0 -0 0
-12.3603203297 25.531277895 0 -0 0
-9.1182563305 25.531277895 6.5550112685 2.8633628229 1
-5.8761923313 25.531277895 8.9685189382 1.2858037297 1
-2.6341283321 25.531277895 9.5088237585 0.0081537419 1
0.607935667 25.531277895 7.7323796276 -0.6719778513 1
3.8499996662 25.531277895 4.7968263994 -1.2626071331 1
7.0920636654 25.531277895 2.8444619371 -1.5739614694 1
10.3341276646 25.531277895 1.8613530346 -1.4086428808 1
13.5761916637 25.531277895 1.4487671806 -0.8468957396 1
16.8182556629 25.531277895 1.371565314 -0.8159656861 1
20.0603196621 25.531277895 0 -0 0
23.3023836613 25.531277895 0 -0 0
26.5444476604 25.531277895 0 -0 0
29.7865116596 25.531277895 0 -0 0
33.0285756588 25.531277895 0 -0 0
36.270639658 25.531277895 0 -0 0
39.5127036572 25.531277895 0 -0 0
42.7547676563 25.531277895 0 -0 0
-35.0547683239 22.2892138958 0 -0 0
-31.8127043247 22.2892138958 0 -0 0
-28.5706403255 22.2892138958 0 -0 0
-25.3285763264 22.2892138958 0 -0 0
-22.0865123272 22.2892138958 0 -0 0
-18.844448328 22.2892138958 0 -0 0
-15.6023843288 22.2892138958 3.9994486376 2.6026179801 1
-12.3603203297 22.2892138958 8.3131620183 -1.4875780382 1
-9.1182563305 22.2892138958 10.8457303529 -3.3891980395 1
-5.8761923313 22.2892138958 10.9294379854 -2.7584296629 1
-2.6341283321 22.2892138958 7.4888861685 -0.4638883015 1
0.607935667 22.2892138958 4.7402774298 0.3773029851 1
3.8499996662 22.2892138958 2.6755460266 0.6212710951 1
7.0920636654 22.2892138958 2.3311112148 0.1197542604 1
10.3341276646 22.2892138958 2.2864766754 -1.6663370654 1
13.5761916637 22.2892138958 1.787701689 -1.914790505 1
16.8182556629 22.2892138958 1.3056715807 -0.7524180322 1
20.0603196621 22.2892138958 1.4562826363 1.7620777909 1
23.3023836613 22.2892138958 0 -0 0
26.5444476604 22.2892138958 0 -0 0
29.7865116596 22.2892138958 0 -0 0
33.0285756588 22.2892138958 0 -0 0
36.270639658 22.2892138958 0 -0 0
39.5127036572 22.2892138958 0 -0 0
42.7547676563 22.2892138958 0 -0 0
-35.0547683239 19.0471498966 0 -0 0
-31.8127043247 19.0471498966 0 -0 0
-28.5706403255 19.0471498966 0 -0 0
-25.3285763264 19.0471498966 0 -0 0
-22.0865123272 19.0471498966 0 -0 0
-18.844448328 19.0471498966 2.2598134973 3.8975330733 1
-15.6023843288 19.0471498966 5.2479340027 1.049793947 1
-12.3603203297 19.0471498966 10.3073217204 -4.0399271139 1
-9.1182563305 19.0471498966 12.7390629869 -6.5410851581 1
-5.8761923313 19.0471498966 10.8302963505 -5.1259517594 1
-2.6341283321 19.0471498966 5.2717359905 -1.4682446222 1
0.607935667 19.0471498966 2.0935501362 0.2925427306 1
3.8499996662 19.0471498966 0.942282666 1.5236450093 1
7.0920636654 19.0471498966 1.6475925849 1.3017107222 1
10.3341276646 19.0471498966 2.4529181816 -0.8848017563 1
13.5761916637 19.0471498966 2.3021935963 -1.0048480312 1
16.8182556629 19.0471498966 1.724537349 1.1202500047 1
20.0603196621 19.0471498966 1.7926427981 3.7642244292 1
23.3023836613 19.0471498966 3.3118399186 2.2640488199 1
26.5444476604 19.0471498966 0 -0 0
29.7865116596 19.0471498966 0 -0 0
33.0285756588 19.0471498966 0 -0 0
36.270639658 19.0471498966 0 -0 0
39.5127036572 19.0471498966 0 -0 0
42.7547676563 19.0471498966 0 -0 0
-35.0547683239 15.8050858974 0 -0 0
-31.8127043247 15.8050858974 0 -0 0
-28.5706403255 15.8050858974 0 -0 0
-25.3285763264 15.8050858974 0 -0 0
-22.0865123272 15.8050858974 2.8142624291 1.5880882194 1
-18.844448328 15.8050858974 4.3829263484 1.7051199935 1
-15.6023843288 15.8050858974 6.9807579641 -0.6325134808 1
-12.3603203297 15.8050858974 10.3201227996 -4.9042647617 1
-9.1182563305 15.8050858974 10.5457244589 -6.5277683642 1
-5.8761923313 15.8050858974 7.3070320977 -4.9555297686 1
-2.6341283321 15.8050858974 2.1681051903 -1.7063488923 1
0.607935667 15.8050858974 0.1464345454 0.1023066437 1
3.8499996662 15.8050858974 -0.3100461593 2.3329686032 1
7.0920636654 15.8050858974 0.5589956308 2.7523896405 1
10.3341276646 15.8050858974 2.0902994423 0.9680847847 1
13.5761916637 15.8050858974 3.286523698 0.8564209129 1
16.8182556629 15.8050858974 2.9507076334 2.585445705 1
20.0603196621 15.8050858974 2.3503839407 3.3834816976 1
23.3023836613 15.8050858974 2.9114538288 -0.1194450731 1
26.5444476604 15.8050858974 3.9702630466 -3.4730001794 1
29.7865116596 15.8050858974 0 -0 0
33.0285756588 15.8050858974 0 -0 0
36.270639658 15.8050858974 0 -0 0
39.5127036572 15.8050858974 0 -0 0
42.7547676563 15.8050858974 0 -0 0
-35.0547683239 12.5630218983 0 -0 0
-31.8127043247 12.5630218983 0 -0 0
-28.5706403255 12.5630218983 0 -0 0
-25.3285763264 12.5630218983 0 -0 0
-22.0865123272 12.5630218983 1.9224214531 0.3543565842 1
-18.844448328 12.5630218983 4.5429941877 -0.6327110255 1
-15.6023843288 12.5630218983 6.7078101867 -1.050066675 1
-12.3603203297 12.5630218983 6.4420999286 -1.5539346466 1
-9.1182563305 12.5630218983 4.603936395 -1.7575130509 1
-5.8761923313 12.5630218983 1.3531196038 -1.3285005645 1
-2.6341283321 12.5630218983 -0.9273815891 -0.9676810899 1
0.607935667 12.5630218983 -1.2458595376 0.1741840968 1
3.8499996662 12.5630218983 -0.9775879917 2.2252876316 1
7.0920636654 12.5630218983 0.0235583546 3.2315892055 1
10.3341276646 12.5630218983 1.9042932336 2.7809381365 1
13.5761916637 12.5630218983 4.1307016692 2.7575793978 1
16.8182556629 12.5630218983 4.0692935673 2.6747709448 1
20.0603196621 12.5630218983 2.7447952273 0.909936133 1
23.3023836613 12.5630218983 1.8130142863 -2.511210708 1
26.5444476604 12.5630218983 2.1109456965 -3.7770085997 1
29.7865116596 12.5630218983 1.58396386 -2.0945078922 1
33.0285756588 12.5630218983 0 -0 0
36.270639658 12.5630218983 0 -0 0
39.5127036572 12.5630218983 0 -0 0
42.7547676563 12.5630218983 0 -0 0
-35.0547683239 9.3209578991 0 -0 0
-31.8127043247 9.3209578991 0 -0 0
-28.5706403255 9.3209578991 0 -0 0
-25.3285763264 9.3209578991 -2.5128066157 0.8057496724 1
-22.0865123272 9.3209578991 -0.5050896616 0.5392419889 1
-18.844448328 9.3209578991 1.9452111845 -0.4864310832 1
-15.6023843288 9.3209578991 3.934483674 -0.9240578255 1
-12.3603203297 9.3209578991 3.3472080479 -0.7425691785 1
-9.1182563305 9.3209578991 1.5297256427 0.0310776176 1
-5.8761923313 9.3209578991 -0.5779462236 0.398544591 1
-2.6341283321 9.3209578991 -1.878014426 0.0136514788 1
0.607935667 9.3209578991 -1.5345117053 0.2397790598 1
3.8499996662 9.3209578991 -0.976896623 1.263438074 1
7.0920636654 9.3209578991 -0.1667958147 1.7537061822 1
10.3341276646 9.3209578991 1.308731901 1.2890405343 1
13.5761916637 9.3209578991 3.3954026195 1.1813317086 1
16.8182556629 9.3209578991 3.8618011053 0.8954450916 1
20.0603196621 9.3209578991 2.3947565465 -0.5799087251 1
23.3023836613 9.3209578991 0.7277281878 -2.3594620907 1
26.5444476604 9.3209578991 0.3191929442 -2.4406128891 1
29.7865116596 9.3209578991 -0.0851038065 -0.9385853263 1
33.0285756588 9.3209578991 0 -0 0
36.270639658 9.3209578991 0 -0 0
39.5127036572 9.3209578991 0 -0 0
42.7547676563 9.3209578991 0 -0 0
-35.0547683239 6.0788938999 0 -0 0
-31.8127043247 6.0788938999 0 -0 0
-28.5706403255 6.0788938999 0 -0 0
-25.3285763264 6.0788938999 -2.3069715064 0.6467146214 1
-22.0865123272 6.0788938999 -1.5466708585 1.9259922041 1
-18.844448328 6.0788938999 -0.2783308522 2.1464211658 1
-15.6023843288 6.0788938999 0.7851747517 1.0933485954 1
-12.3603203297 6.0788938999 0.6778566373 0.3277085031 1
-9.1182563305 6.0788938999 0.1352995091 0.2073401518 1
-5.8761923313 6.0788938999 -0.5563331929 0.2865565103 1
-2.6341283321 6.0788938999 -1.4479714158 -0.1763162136 1
0.607935667 6.0788938999 -1.0911456358 -0.5932681682 1
3.8499996662 6.0788938999 -0.3942954168 -0.5685589618 1
7.0920636654 6.0788938999 0.1634269677 -0.5104918719 1
10.3341276646 6.0788938999 0.7702865072 -1.0521730135 1
13.5761916637 6.0788938999 1.9996044483 -0.9840916441 1
16.8182556629 6.0788938999 2.7367264651 -0.5907560214 1
20.0603196621 6.0788938999 1.7263817539 -0.6864344716 1
23.3023836613 6.0788938999 0.2975562866 -1.0064132919 1
26.5444476604 6.0788938999 -0.4707248058 -1.2363111904 1
29.7865116596 6.0788938999 -0.7247500708 -0.7936666083 1
33.0285756588 6.0788938999 -0.9116881441 -0.7660759437 1
36.270639658 6.0788938999 0 -0 0
39.5127036572 6.0788938999 0 -0 0
42.7547676563 6.0788938999 0 -0 0
-35.0547683239 2.8368299007 0 -0 0
-31.8127043247 2.8368299007 0 -0 0
-28.5706403255 2.8368299007 -0.2453297306 -0.526449364 1
-25.3285763264 2.8368299007 -0.4503592432 1.9522538011 1
-22.0865123272 2.8368299007 0.1181804038 4.5880262321 1
-18.844448328 2.8368299007 0.0856320046 5.7084008629 1
-15.6023843288 2.8368299007 -0.7647920163 4.2816107403 1
-12.3603203297 2.8368299007 -1.180043403 2.82238856 1
-9.1182563305 2.8368299007 -1.3291575875 1.665845355 1
-5.8761923313 2.8368299007 -1.3509681252 0.6285326942 1
-2.6341283321 2.8368299007 -1.9110888626 -0.7779002447 1
0.607935667 2.8368299007 -1.0518638262 -1.8045717215 1
3.8499996662 2.8368299007 0.2937494179 -1.994318221 1
7.0920636654 2.8368299007 0.6467489672 -2.333275526 1
10.3341276646 2.8368299007 0.6902520592 -2.5166729668 1
13.5761916637 2.8368299007 1.309934229 -2.2654862088 1
16.8182556629 2.8368299007 1.7711366167 -1.3231992401 1
20.0603196621 2.8368299007 0.9300847889 -1.0195880983 1
23.3023836613 2.8368299007 -0.1204821358 -1.1847971579 1
26.5444476604 2.8368299007 -0.6421713192 -1.5611554082 1
29.7865116596 2.8368299007 -0.7574445151 -1.754573507 1
33.0285756588 2.8368299007 -0.9410166286 -1.9317565546 1
36.270639658 2.8368299007 0 -0 0
39.5127036572 2.8368299007 0 -0 0
42.7547676563 2.8368299007 0 -0 0
-35.0547683239 -0.4052340984 0 -0 0
-31.8127043247 -0.4052340984 0 -0 0
-28.5706403255 -0.4052340984 -0.1438293347 -0.3744086568 1
-25.3285763264 -0.4052340984 1.1177550685 1.6294128845 1
-22.0865123272 -0.4052340984 2.4904479047 4.1863016391 1
-18.844448328 -0.4052340984 2.3146020015 5.7064938052 1
-15.6023843288 -0.4052340984 0.2276048096 5.4476762501 1
-12.3603203297 -0.4052340984 -1.6414796439 4.579738261 1
-9.1182563305 -0.4052340984 -3.3446337013 3.0989886125 1
-5.8761923313 -0.4052340984 -4.3779742185 1.2198212258 1
-2.6341283321 -0.4052340984 -4.1610150088 -0.7683004166 1
0.607935667 -0.4052340984 -1.6553652942 -1.8666238629 1
3.8499996662 -0.4052340984 0.8919452966 -2.3417502474 1
7.0920636654 -0.4052340984 1.5119301619 -2.8539597847 1
10.3341276646 -0.4052340984 1.609124581 -2.7123927597 1
13.5761916637 -0.4052340984 2.047406195 -2.2337430288 1
16.8182556629 -0.4052340984 1.7429789829 -1.6412907799 1
20.0603196621 -0.4052340984 0.467845499 -1.6886630159 1
23.3023836613 -0.4052340984 -0.6899794067 -1.9888559622 1
26.5444476604 -0.4052340984 -1.0426891306 -2.1084555913 1
29.7865116596 -0.4052340984 -0.8649794229 -2.1687771594 1
33.0285756588 -0.4052340984 -0.8549515938 -2.5311467976 1
36.270639658 -0.4052340984 0 -0 0
39.5127036572 -0.4052340984 0 -0 0
42.7547676563 -0.4052340984 0 -0 0
-35.0547683239 -3.6472980976 0 -0 0
-31.8127043247 -3.6472980976 0 -0 0
-28.5706403255 -3.6472980976 -1.3687435269 -0.8734025879 1
-25.3285763264 -3.6472980976 1.0981839497 -0.0651848425 1
-22.0865123272 -3.6472980976 4.0999740669 1.0265297912 1
-18.844448328 -3.6472980976 4.8941107969 2.0045965854 1
-15.6023843288 -3.6472980976 2.6808967183 2.8455453004 1
-12.3603203297 -3.6472980976 -0.6870249167 3.4118562757 1
-9.1182563305 -3.6472980976 -4.7909817327 3.0435411226 1
-5.8761923313 -3.6472980976 -7.6777325826 1.691301827 1
-2.6341283321 -3.6472980976 -6.9041827755 0.0804273484 1
0.607935667 -3.6472980976 -2.7550113919 -0.9376985264 1
3.8499996662 -3.6472980976 0.8070518673 -2.0521213015 1
7.0920636654 -3.6472980976 1.6941660367 -2.8663511303 1
10.3341276646 -3.6472980976 2.0453212943 -2.3871557925 1
13.5761916637 -3.6472980976 2.4156289543 -1.4323961052 1
16.8182556629 -3.6472980976 1.7508375943 -1.1531527126 1
20.0603196621 -3.6472980976 0.4121917836 -1.8758480013 1
23.3023836613 -3.6472980976 -0.6505623276 -2.6623968097 1
26.5444476604 -3.6472980976 -1.0795532254 -3.000649838 1
29.7865116596 -3.6472980976 -0.8910198482 -3.2645478478 1
33.0285756588 -3.6472980976 -0.6061667366 -3.7305278437 1
36.270639658 -3.6472980976 0 -0 0
39.5127036572 -3.6472980976 0 -0 0
42.7547676563 -3.6472980976 0 -0 0
-35.0547683239 -6.8893620968 0 -0 0
-31.8127043247 -6.8893620968 0 -0 0
-28.5706403255 -6.8893620968 -2.1864043082 -1.4565506087 1
-25.3285763264 -6.8893620968 0.8545614864 -1.6359572989 1
-22.0865123272 -6.8893620968 5.2734280664 -1.4940445518 1
-18.844448328 -6.8893620968 7.3002281653 -1.6141251724 1
-15.6023843288 -6.8893620968 5.287184486 -0.8859375819 1
-12.3603203297 -6.8893620968 0.397363663 0.518157128 1
-9.1182563305 -6.8893620968 -5.3929694209 1.6119308182 1
-5.8761923313 -6.8893620968 -9.015021434 1.4899757495 1
-2.6341283321 -6.8893620968 -7.9597524712 0.8242396924 1
0.607935667 -6.8893620968 -3.610264247 -0.0214004857 1
3.8499996662 -6.8893620968 -0.3534719356 -1.4837039876 1
7.0920636654 -6.8893620968 0.0376843497 -2.1329737825 1
10.3341276646 -6.8893620968 0.4871825759 -1.4095828223 1
13.5761916637 -6.8893620968 1.1628878101 -0.5142858327 1
16.8182556629 -6.8893620968 1.494486895 -0.927091726 1
20.0603196621 -6.8893620968 1.0775521132 -2.3804481792 1
23.3023836613 -6.8893620968 0.6872997582 -3.9363451386 1
26.5444476604 -6.8893620968 0.4775569697 -5.2905921891 1
29.7865116596 -6.8893620968 0.3658544872 -5.9716738554 1
33.0285756588 -6.8893620968 0.4130456342 -6.1503430553 1
36.270639658 -6.8893620968 0 -0 0
39.5127036572 -6.8893620968 0 -0 0
42.7547676563 -6.8893620968 0 -0 0
-35.0547683239 -10.131426096 0 -0 0
-31.8127043247 -10.131426096 0 -0 0
-28.5706403255 -10.131426096 -1.6803881793 0.2411753658 1
-25.3285763264 -10.131426096 1.3176962193 -0.0516793686 1
-22.0865123272 -10.131426096 5.5391226235 -0.9762653404 1
-18.844448328 -10.131426096 7.6499292763 -1.6805876111 1
-15.6023843288 -10.131426096 5.6286842829 -2.116185274 1
-12.3603203297 -10.131426096 0.2179147767 -1.203299029 1
-9.1182563305 -10.131426096 -5.8059428158 0.528137024 1
-5.8761923313 -10.131426096 -8.9545602183 1.6733968926 1
-2.6341283321 -10.131426096 -7.6657086989 2.1326215686 1
0.607935667 -10.131426096 -3.8322522796 1.5068029064 1
3.8499996662 -10.131426096 -1.3214257912 0.1453738559 1
7.0920636654 -10.131426096 -1.6081647115 -0.6100587526 1
10.3341276646 -10.131426096 -1.7333082743 -0.4236102384 1
13.5761916637 -10.131426096 -1.1605495811 -0.4244110985 1
16.8182556629 -10.131426096 0.3215226056 -1.7133829035 1
20.0603196621 -10.131426096 1.1635663464 -3.3866916295 1
23.3023836613 -10.131426096 1.5327853591 -5.0379088619 1
26.5444476604 -10.131426096 1.6182305096 -6.8825263786 1
29.7865116596 -10.131426096 1.374657489 -7.9883522972 1
33.0285756588 -10.131426096 1.0829979917 -7.841034811 1
36.270639658 -10.131426096 0 -0 0
39.5127036572 -10.131426096 0 -0 0
42.7547676563 -10.131426096 0 -0 0
-35.0547683239 -13.3734900951 0 -0 0
-31.8127043247 -13.3734900951 0 -0 0
-28.5706403255 -13.3734900951 0 -0 0
-25.3285763264 -13.3734900951 1.5587092354 0.6393708945 1
-22.0865123272 -13.3734900951 3.7962811746 -0.1011665155 1
-18.844448328 -13.3734900951 4.9059115464 -0.6833898522 1
-15.6023843288 -13.3734900951 2.7871025585 -1.475469762 1
-12.3603203297 -13.3734900951 -1.4716736121 -1.2225287283 1
-9.1182563305 -13.3734900951 -6.0553343852 0.6195340678 1
-5.8761923313 -13.3734900951 -7.5737900901 2.4440912463 1
-2.6341283321 -13.3734900951 -5.8773584411 3.6474289237 1
0.607935667 -13.3734900951 -2.925279091 3.3985095896 1
3.8499996662 -13.3734900951 -1.1706604439 2.0960301264 1
7.0920636654 -13.3734900951 -2.0046051907 0.6469164688 1
10.3341276646 -13.3734900951 -3.1872510209 -0.4319690146 1
13.5761916637 -13.3734900951 -3.6272867596 -1.4126703173 1
16.8182556629 -13.3734900951 -1.9706954351 -3.1201872672 1
20.0603196621 -13.3734900951 -0.2430233752 -4.4883927358 1
23.3023836613 -13.3734900951 0.4978516894 -5.7201282408 1
26.5444476604 -13.3734900951 0.722894947 -6.8107073603 1
29.7865116596 -13.3734900951 0.2125512525 -7.1048604352 1
33.0285756588 -13.3734900951 0.2789191649 -6.75731035 1
36.270639658 -13.3734900951 0 -0 0
39.5127036572 -13.3734900951 0 -0 0
42.7547676563 -13.3734900951 0 -0 0
-35.0547683239 -16.6155540943 0 -0 0
-31.8127043247 -16.6155540943 0 -0 0
-28.5706403255 -16.6155540943 0 -0 0
-25.3285763264 -16.6155540943 0.5264498924 -0.4058561235 1
-22.0865123272 -16.6155540943 0.6898441372 -1.2831724672 1
-18.844448328 -16.6155540943 0.6572355952 -0.9613857012 1
-15.6023843288 -16.6155540943 -1.5634528752 -0.9913232001 1
-12.3603203297 -16.6155540943 -4.186750323 -0.2542614771 1
-9.1182563305 -16.6155540943 -6.2166746027 1.4441194069 1
-5.8761923313 -16.6155540943 -5.6329845228 2.9812054588 1
-2.6341283321 -16.6155540943 -3.7256448582 4.2088508748 1
0.607935667 -16.6155540943 -2.0504636469 4.4814595727 1
3.8499996662 -16.6155540943 -1.0918413073 3.1906886161 1
7.0920636654 -16.6155540943 -1.6804802712 0.6643576222 1
10.3341276646 -16.6155540943 -3.2872408073 -1.5550640559 1
13.5761916637 -16.6155540943 -4.3531489536 -2.5164217521 1
16.8182556629 -16.6155540943 -3.3599342458 -3.6062532664 1
20.0603196621 -16.6155540943 -1.619430724 -4.9745553559 1
23.3023836613 -16.6155540943 -1.4995240212 -5.6930592544 1
26.5444476604 -16.6155540943 -2.1698700339 -5.3336634304 1
29.7865116596 -16.6155540943 -2.8783922247 -4.3003509936 1
33.0285756588 -16.6155540943 0 -0 0
36.270639658 -16.6155540943 0 -0 0
39.5127036572 -16.6155540943 0 -0 0
42.7547676563 -16.6155540943 0 -0 0
-35.0547683239 -19.8576180935 0 -0 0
-31.8127043247 -19.8576180935 0 -0 0
-28.5706403255 -19.8576180935 0 -0 0
-25.3285763264 -19.8576180935 0 -0 0
-22.0865123272 -19.8576180935 -2.0916578736 -2.7738195819 1
-18.844448328 -19.8576180935 -2.6200897805 -2.0879483808 1
-15.6023843288 -19.8576180935 -4.3624094758 -1.2819979177 1
-12.3603203297 -19.8576180935 -5.778253643 0.1673540654 1
-9.1182563305 -19.8576180935 -5.8486064371 1.5843015807 1
-5.8761923313 -19.8576180935 -4.0834497565 2.438875975 1
-2.6341283321 -19.8576180935 -2.8397631354 3.3249230104 1
0.607935667 -19.8576180935 -2.7367928921 3.6896417475 1
3.8499996662 -19.8576180935 -1.9887163146 2.2655485595 1
7.0920636654 -19.8576180935 -1.3715870537 -0.6387187025 1
10.3341276646 -19.8576180935 -1.8011427316 -2.4610902075 1
13.5761916637 -19.8576180935 -3.0092041208 -2.2878915697 1
16.8182556629 -19.8576180935 -3.0198882935 -2.8601993899 1
20.0603196621 -19.8576180935 -2.3440649251 -4.2216284026 1
23.3023836613 -19.8576180935 -3.2373650297 -5.2074570362 1
26.5444476604 -19.8576180935 -4.7678566961 -4.0283805984 1
29.7865116596 -19.8576180935 -5.6274276056 -2.2059188886 1
33.0285756588 -19.8576180935 0 -0 0
36.270639658 -19.8576180935 0 -0 0
39.5127036572 -19.8576180935 0 -0 0
42.7547676563 -19.8576180935 0 -0 0
-35.0547683239 -23.0996820927 0 -0 0
-31.8127043247 -23.0996820927 0 -0 0
-28.5706403255 -23.0996820927 0 -0 0
-25.3285763264 -23.0996820927 0 -0 0
-22.0865123272 -23.0996820927 -3.8059934001 -4.8179969737 1
-18.844448328 -23.0996820927 -3.7911684122 -3.8361307083 1
-15.6023843288 -23.0996820927 -4.7651969002 -2.0912442148 1
-12.3603203297 -23.0996820927 -5.8639667659 0.3653305823 1
-9.1182563305 -23.0996820927 -5.1410548347 1.3484689617 1
-5.8761923313 -23.0996820927 -3.3868528658 1.4490901062 1
-2.6341283321 -23.0996820927 -2.8301375669 1.9243410413 1
0.607935667 -23.0996820927 -3.8033668177 2.1692774752 1
3.8499996662 -23.0996820927 -2.9886667162 0.9495958215 1
7.0920636654 -23.0996820927 -0.410446151 -1.423777509 1
10.3341276646 -23.0996820927 0.7862117672 -2.0622621319 1
13.5761916637 -23.0996820927 -0.0355758646 -0.780901913 1
16.8182556629 -23.0996820927 -1.7743593811 -0.6717115396 1
20.0603196621 -23.0996820927 -2.6767139334 -2.2843144779 1
23.3023836613 -23.0996820927 -4.189964784 -4.0500101226 1
26.5444476604 -23.0996820927 -5.8611303347 -3.498769613 1
29.7865116596 -23.0996820927 0 -0 0
33.0285756588 -23.0996820927 0 -0 0
36.270639658 -23.0996820927 0 -0 0
39.5127036572 -23.0996820927 0 -0 0
42.7547676563 -23.0996820927 0 -0 0
-35.0547683239 -26.3417460918 0 -0 0
-31.8127043247 -26.3417460918 0 -0 0
-28.5706403255 -26.3417460918 0 -0 0
-25.3285763264 -26.3417460918 0 -0 0
-22.0865123272 -26.3417460918 0 -0 0
-18.844448328 -26.3417460918 -4.1018394567 -4.4897098012 1
-15.6023843288 -26.3417460918 -4.3360449171 -1.9997117883 1
-12.3603203297 -26.3417460918 -4.6031205511 -0.099015084 1
-9.1182563305 -26.3417460918 -3.656734737 0.2259643844 1
-5.8761923313 -26.3417460918 -2.3091481971 0.2220608947 1
-2.6341283321 -26.3417460918 -2.4185962769 0.8603995859 1
0.607935667 -26.3417460918 -3.5503184441 1.1279560606 1
3.8499996662 -26.3417460918 -2.5767561527 0.3036326739 1
7.0920636654 -26.3417460918 0.8714744699 -1.2469867578 1
10.3341276646 -26.3417460918 2.4752032191 -1.1229339559 1
13.5761916637 -26.3417460918 1.4180489384 0.3873687455 1
16.8182556629 -26.3417460918 -1.6326356489 0.687840836 1
20.0603196621 -26.3417460918 -3.5445631519 -0.458609585 1
23.3023836613 -26.3417460918 -5.0985222557 -2.4393697991 1
26.5444476604 -26.3417460918 0 -0 0
29.7865116596 -26.3417460918 0 -0 0
33.0285756588 -26.3417460918 0 -0 0
36.270639658 -26.3417460918 0 -0 0
39.5127036572 -26.3417460918 0 -0 0
42.7547676563 -26.3417460918 0 -0 0
-35.0547683239 -29.583810091 0 -0 0
-31.8127043247 -29.583810091 0 -0 0
-28.5706403255 -29.583810091 0 -0 0
-25.3285763264 -29.583810091 0 -0 0
-22.0865123272 -29.583810091 0 -0 0
-18.844448328 -29.583810091 0 -0 0
-15.6023843288 -29.583810091 -3.4744993152 -1.7174317777 1
-12.3603203297 -29.583810091 -2.8575075883 -0.4177306221 1
-9.1182563305 -29.583810091 -1.453665565 -0.5369789054 1
-5.8761923313 -29.583810091 -0.1023774959 -0.8126515846 1
-2.6341283321 -29.583810091 -0.2219964869 -0.5441095376 1
0.607935667 -29.583810091 -1.402834296 -0.2323156133 1
3.8499996662 -29.583810091 -1.099955285 -0.4548424592 1
7.0920636654 -29.583810091 1.3509101525 -1.0422575064 1
10.3341276646 -29.583810091 2.1241705495 -0.7595593834 1
13.5761916637 -29.583810091 0.8323193244 0.3249988115 1
16.8182556629 -29.583810091 -2.4602098993 1.0333777314 1
20.0603196621 -29.583810091 -4.3213832791 0.3526127632 1
23.3023836613 -29.583810091 0 -0 0
26.5444476604 -29.583810091 0 -0 0
29.7865116596 -29.583810091 0 -0 0
33.0285756588 -29.583810091 0 -0 0
36.270639658 -29.583810091 0 -0 0
39.5127036572 -29.583810091 0 -0 0
42.7547676563 -29.583810091 0 -0 0
-35.0547683239 -32.8258740902 0 -0 0
-31.8127043247 -32.8258740902 0 -0 0
-28.5706403255 -32.8258740902 0 -0 0
-25.3285763264 -32.8258740902 0 -0 0
-22.0865123272 -32.8258740902 0 -0 0
-18.844448328 -32.8258740902 0 -0 0
-15.6023843288 -32.8258740902 0 -0 0
-12.3603203297 -32.8258740902 0 -0 0
-9.1182563305 -32.8258740902 0.7032279621 -0.963829534 1
-5.8761923313 -32.8258740902 2.2752555011 -1.7976421818 1
-2.6341283321 -32.8258740902 2.0101050411 -2.0004933618 1
0.607935667 -32.8258740902 0.484067076 -1.3187653914 1
3.8499996662 -32.8258740902 -0.5677172643 -0.7825702865 1
7.0920636654 -32.8258740902 -0.1984821543 -0.7866986466 1
10.3341276646 -32.8258740902 -0.188597464 -0.9255058578 1
13.5761916637 -32.8258740902 -1.0377739885 -0.3361036254 1
16.8182556629 -32.8258740902 -2.9019813442 0.2316331518 1
20.0603196621 -32.8258740902 0 -0 0
23.3023836613 -32.8258740902 0 -0 0
26.5444476604 -32.8258740902 0 -0 0
29.7865116596 -32.8258740902 0 -0 0
33.0285756588 -32.8258740902 0 -0 0
36.270639658 -32.8258740902 0 -0 0
39.5127036572 -32.8258740902 0 -0 0
42.7547676563 -32.8258740902 0 -0 0
-35.0547683239 -36.0679380894 0 -0 0
-31.8127043247 -36.0679380894 0 -0 0
-28.5706403255 -36.0679380894 0 -0 0
-25.3285763264 -36.0679380894 0 -0 0
-22.0865123272 -36.0679380894 0 -0 0
-18.844448328 -36.0679380894 0 -0 0
-15.6023843288 -36.0679380894 0 -0 0
-12.3603203297 -36.0679380894 0 -0 0
-9.1182563305 -36.0679380894 0 -0 0
-5.8761923313 -36.0679380894 0 -0 0
-2.6341283321 -36.0679380894 0 -0 0
0.607935667 -36.0679380894 0 -0 0
3.8499996662 -36.0679380894 0 -0 0
7.0920636654 -36.0679380894 0 -0 0
10.3341276646 -36.0679380894 0 -0 0
13.5761916637 -36.0679380894 0 -0 0
16.8182556629 -36.0679380894 0 -0 0
20.0603196621 -36.0679380894 0 -0 0
23.3023836613 -36.0679380894 0 -0 0
26.5444476604 -36.0679380894 0 -0 0
29.7865116596 -36.0679380894 0 -0 0
33.0285756588 -36.0679380894 0 -0 0
36.270639658 -36.0679380894 0 -0 0
39.5127036572 -36.0679380894 0 -0 0
42.7547676563 -36.0679380894 0 -0 0
-35.0547683239 -39.3100020885 0 -0 0
-31.8127043247 -39.3100020885 0 -0 0
-28.5706403255 -39.3100020885 0 -0 0
-25.3285763264 -39.3100020885 0 -0 0
-22.0865123272 -39.3100020885 0 -0 0
-18.844448328 -39.3100020885 0 -0 0
-15.6023843288 -39.3100020885 0 -0 0
-12.3603203297 -39.3100020885 0 -0 0
-9.1182563305 -39.3100020885 0 -0 0
-5.8761923313 -39.3100020885 0 -0 0
-2.6341283321 -39.3100020885 0 -0 0
0.607935667 -39.3100020885 0 -0 0
3.8499996662 -39.3100020885 0 -0 0
7.0920636654 -39.3100020885 0 -0 0
10.3341276646 -39.3100020885 0 -0 0
13.5761916637 -39.3100020885 0 -0 0
16.8182556629 -39.3100020885 0 -0 0
20.0603196621 -39.3100020885 0 -0 0
23.3023836613 -39.3100020885 0 -0 0
26.5444476604 -39.3100020885 0 -0 0
29.7865116596 -39.3100020885 0 -0 0
33.0285756588 -39.3100020885 0 -0 0
36.270639658 -39.3100020885 0 -0 0
39.5127036572 -39.3100020885 0 -0 0
42.7547676563 -39.3100020885 0 -0 0
-35.0547683239 -42.5520660877 0 -0 0
-31.8127043247 -42.5520660877 0 -0 0
-28.5706403255 -42.5520660877 0 -0 0
-25.3285763264 -42.5520660877 0 -0 0
-22.0865123272 -42.5520660877 0 -0 0
-18.844448328 -42.5520660877 0 -0 0
-15.6023843288 -42.5520660877 0 -0 0
-12.3603203297 -42.5520660877 0 -0 0
-9.1182563305 -42.5520660877 0 -0 0
-5.8761923313 -42.5520660877 0 -0 0
-2.6341283321 -42.5520660877 0 -0 0
0.607935667 -42.5520660877 0 -0 0
3.8499996662 -42.5520660877 0 -0 0
7.0920636654 -42.5520660877 0 -0 0
10.3341276646 -42.5520660877 0 -0 0
13.5761916637 -42.5520660877 0 -0 0
16.8182556629 -42.5520660877 0 -0 0
20.0603196621 -42.5520660877 0 -0 0
23.3023836613 -42.5520660877 0 -0 0
26.5444476604 -42.5520660877 0 -0 0
29.7865116596 -42.5520660877 0 -0 0
33.0285756588 -42.5520660877 0 -0 0
36.270639658 -42.5520660877 0 -0 0
39.5127036572 -42.5520660877 0 -0 0
42.7547676563 -42.5520660877 0 -0 0
